Circular pore r=5.0 A at z=96.5 — removed 30/680, 650 filter(type2)
15280 atoms
9196 bonds
4598 angles

6 atom types
1 bond types
1 angle types

0.000000 41.753000 xlo xhi
0.000000 42.540000 ylo yhi
0.000000 130.000000 zlo zhi

Masses

1 12.0107
2 12.0107
3 15.9994
4 1.00849
5 39.0983
6 35.453

Atoms

       1        0        1       0.0000        1.2300        0.0000       12.5000
       2        0        1       0.0000        0.0000        0.7100       12.5000
       3        0        1       0.0000        0.0000        2.1300       12.5000
       4        0        1       0.0000        1.2300        2.8400       12.5000
       5        0        1       0.0000        3.6800        0.0000       12.5000
       6        0        1       0.0000        2.4600        0.7100       12.5000
       7        0        1       0.0000        2.4600        2.1300       12.5000
       8        0        1       0.0000        3.6800        2.8400       12.5000
       9        0        1       0.0000        6.1400        0.0000       12.5000
      10        0        1       0.0000        4.9100        0.7100       12.5000
      11        0        1       0.0000        4.9100        2.1300       12.5000
      12        0        1       0.0000        6.1400        2.8400       12.5000
      13        0        1       0.0000        8.6000        0.0000       12.5000
      14        0        1       0.0000        7.3700        0.7100       12.5000
      15        0        1       0.0000        7.3700        2.1300       12.5000
      16        0        1       0.0000        8.6000        2.8400       12.5000
      17        0        1       0.0000       11.0500        0.0000       12.5000
      18        0        1       0.0000        9.8200        0.7100       12.5000
      19        0        1       0.0000        9.8200        2.1300       12.5000
      20        0        1       0.0000       11.0500        2.8400       12.5000
      21        0        1       0.0000       13.5100        0.0000       12.5000
      22        0        1       0.0000       12.2800        0.7100       12.5000
      23        0        1       0.0000       12.2800        2.1300       12.5000
      24        0        1       0.0000       13.5100        2.8400       12.5000
      25        0        1       0.0000       15.9600        0.0000       12.5000
      26        0        1       0.0000       14.7400        0.7100       12.5000
      27        0        1       0.0000       14.7400        2.1300       12.5000
      28        0        1       0.0000       15.9600        2.8400       12.5000
      29        0        1       0.0000       18.4200        0.0000       12.5000
      30        0        1       0.0000       17.1900        0.7100       12.5000
      31        0        1       0.0000       17.1900        2.1300       12.5000
      32        0        1       0.0000       18.4200        2.8400       12.5000
      33        0        1       0.0000       20.8800        0.0000       12.5000
      34        0        1       0.0000       19.6500        0.7100       12.5000
      35        0        1       0.0000       19.6500        2.1300       12.5000
      36        0        1       0.0000       20.8800        2.8400       12.5000
      37        0        1       0.0000       23.3300        0.0000       12.5000
      38        0        1       0.0000       22.1000        0.7100       12.5000
      39        0        1       0.0000       22.1000        2.1300       12.5000
      40        0        1       0.0000       23.3300        2.8400       12.5000
      41        0        1       0.0000       25.7900        0.0000       12.5000
      42        0        1       0.0000       24.5600        0.7100       12.5000
      43        0        1       0.0000       24.5600        2.1300       12.5000
      44        0        1       0.0000       25.7900        2.8400       12.5000
      45        0        1       0.0000       28.2500        0.0000       12.5000
      46        0        1       0.0000       27.0200        0.7100       12.5000
      47        0        1       0.0000       27.0200        2.1300       12.5000
      48        0        1       0.0000       28.2500        2.8400       12.5000
      49        0        1       0.0000       30.7000        0.0000       12.5000
      50        0        1       0.0000       29.4700        0.7100       12.5000
      51        0        1       0.0000       29.4700        2.1300       12.5000
      52        0        1       0.0000       30.7000        2.8400       12.5000
      53        0        1       0.0000       33.1600        0.0000       12.5000
      54        0        1       0.0000       31.9300        0.7100       12.5000
      55        0        1       0.0000       31.9300        2.1300       12.5000
      56        0        1       0.0000       33.1600        2.8400       12.5000
      57        0        1       0.0000       35.6100        0.0000       12.5000
      58        0        1       0.0000       34.3800        0.7100       12.5000
      59        0        1       0.0000       34.3800        2.1300       12.5000
      60        0        1       0.0000       35.6100        2.8400       12.5000
      61        0        1       0.0000       38.0700        0.0000       12.5000
      62        0        1       0.0000       36.8400        0.7100       12.5000
      63        0        1       0.0000       36.8400        2.1300       12.5000
      64        0        1       0.0000       38.0700        2.8400       12.5000
      65        0        1       0.0000       40.5300        0.0000       12.5000
      66        0        1       0.0000       39.3000        0.7100       12.5000
      67        0        1       0.0000       39.3000        2.1300       12.5000
      68        0        1       0.0000       40.5300        2.8400       12.5000
      69        0        1       0.0000        1.2300        4.2500       12.5000
      70        0        1       0.0000        0.0000        4.9600       12.5000
      71        0        1       0.0000        0.0000        6.3800       12.5000
      72        0        1       0.0000        1.2300        7.0900       12.5000
      73        0        1       0.0000        3.6800        4.2500       12.5000
      74        0        1       0.0000        2.4600        4.9600       12.5000
      75        0        1       0.0000        2.4600        6.3800       12.5000
      76        0        1       0.0000        3.6800        7.0900       12.5000
      77        0        1       0.0000        6.1400        4.2500       12.5000
      78        0        1       0.0000        4.9100        4.9600       12.5000
      79        0        1       0.0000        4.9100        6.3800       12.5000
      80        0        1       0.0000        6.1400        7.0900       12.5000
      81        0        1       0.0000        8.6000        4.2500       12.5000
      82        0        1       0.0000        7.3700        4.9600       12.5000
      83        0        1       0.0000        7.3700        6.3800       12.5000
      84        0        1       0.0000        8.6000        7.0900       12.5000
      85        0        1       0.0000       11.0500        4.2500       12.5000
      86        0        1       0.0000        9.8200        4.9600       12.5000
      87        0        1       0.0000        9.8200        6.3800       12.5000
      88        0        1       0.0000       11.0500        7.0900       12.5000
      89        0        1       0.0000       13.5100        4.2500       12.5000
      90        0        1       0.0000       12.2800        4.9600       12.5000
      91        0        1       0.0000       12.2800        6.3800       12.5000
      92        0        1       0.0000       13.5100        7.0900       12.5000
      93        0        1       0.0000       15.9600        4.2500       12.5000
      94        0        1       0.0000       14.7400        4.9600       12.5000
      95        0        1       0.0000       14.7400        6.3800       12.5000
      96        0        1       0.0000       15.9600        7.0900       12.5000
      97        0        1       0.0000       18.4200        4.2500       12.5000
      98        0        1       0.0000       17.1900        4.9600       12.5000
      99        0        1       0.0000       17.1900        6.3800       12.5000
     100        0        1       0.0000       18.4200        7.0900       12.5000
     101        0        1       0.0000       20.8800        4.2500       12.5000
     102        0        1       0.0000       19.6500        4.9600       12.5000
     103        0        1       0.0000       19.6500        6.3800       12.5000
     104        0        1       0.0000       20.8800        7.0900       12.5000
     105        0        1       0.0000       23.3300        4.2500       12.5000
     106        0        1       0.0000       22.1000        4.9600       12.5000
     107        0        1       0.0000       22.1000        6.3800       12.5000
     108        0        1       0.0000       23.3300        7.0900       12.5000
     109        0        1       0.0000       25.7900        4.2500       12.5000
     110        0        1       0.0000       24.5600        4.9600       12.5000
     111        0        1       0.0000       24.5600        6.3800       12.5000
     112        0        1       0.0000       25.7900        7.0900       12.5000
     113        0        1       0.0000       28.2500        4.2500       12.5000
     114        0        1       0.0000       27.0200        4.9600       12.5000
     115        0        1       0.0000       27.0200        6.3800       12.5000
     116        0        1       0.0000       28.2500        7.0900       12.5000
     117        0        1       0.0000       30.7000        4.2500       12.5000
     118        0        1       0.0000       29.4700        4.9600       12.5000
     119        0        1       0.0000       29.4700        6.3800       12.5000
     120        0        1       0.0000       30.7000        7.0900       12.5000
     121        0        1       0.0000       33.1600        4.2500       12.5000
     122        0        1       0.0000       31.9300        4.9600       12.5000
     123        0        1       0.0000       31.9300        6.3800       12.5000
     124        0        1       0.0000       33.1600        7.0900       12.5000
     125        0        1       0.0000       35.6100        4.2500       12.5000
     126        0        1       0.0000       34.3800        4.9600       12.5000
     127        0        1       0.0000       34.3800        6.3800       12.5000
     128        0        1       0.0000       35.6100        7.0900       12.5000
     129        0        1       0.0000       38.0700        4.2500       12.5000
     130        0        1       0.0000       36.8400        4.9600       12.5000
     131        0        1       0.0000       36.8400        6.3800       12.5000
     132        0        1       0.0000       38.0700        7.0900       12.5000
     133        0        1       0.0000       40.5300        4.2500       12.5000
     134        0        1       0.0000       39.3000        4.9600       12.5000
     135        0        1       0.0000       39.3000        6.3800       12.5000
     136        0        1       0.0000       40.5300        7.0900       12.5000
     137        0        1       0.0000        1.2300        8.5100       12.5000
     138        0        1       0.0000        0.0000        9.2200       12.5000
     139        0        1       0.0000        0.0000       10.6400       12.5000
     140        0        1       0.0000        1.2300       11.3400       12.5000
     141        0        1       0.0000        3.6800        8.5100       12.5000
     142        0        1       0.0000        2.4600        9.2200       12.5000
     143        0        1       0.0000        2.4600       10.6400       12.5000
     144        0        1       0.0000        3.6800       11.3400       12.5000
     145        0        1       0.0000        6.1400        8.5100       12.5000
     146        0        1       0.0000        4.9100        9.2200       12.5000
     147        0        1       0.0000        4.9100       10.6400       12.5000
     148        0        1       0.0000        6.1400       11.3400       12.5000
     149        0        1       0.0000        8.6000        8.5100       12.5000
     150        0        1       0.0000        7.3700        9.2200       12.5000
     151        0        1       0.0000        7.3700       10.6400       12.5000
     152        0        1       0.0000        8.6000       11.3400       12.5000
     153        0        1       0.0000       11.0500        8.5100       12.5000
     154        0        1       0.0000        9.8200        9.2200       12.5000
     155        0        1       0.0000        9.8200       10.6400       12.5000
     156        0        1       0.0000       11.0500       11.3400       12.5000
     157        0        1       0.0000       13.5100        8.5100       12.5000
     158        0        1       0.0000       12.2800        9.2200       12.5000
     159        0        1       0.0000       12.2800       10.6400       12.5000
     160        0        1       0.0000       13.5100       11.3400       12.5000
     161        0        1       0.0000       15.9600        8.5100       12.5000
     162        0        1       0.0000       14.7400        9.2200       12.5000
     163        0        1       0.0000       14.7400       10.6400       12.5000
     164        0        1       0.0000       15.9600       11.3400       12.5000
     165        0        1       0.0000       18.4200        8.5100       12.5000
     166        0        1       0.0000       17.1900        9.2200       12.5000
     167        0        1       0.0000       17.1900       10.6400       12.5000
     168        0        1       0.0000       18.4200       11.3400       12.5000
     169        0        1       0.0000       20.8800        8.5100       12.5000
     170        0        1       0.0000       19.6500        9.2200       12.5000
     171        0        1       0.0000       19.6500       10.6400       12.5000
     172        0        1       0.0000       20.8800       11.3400       12.5000
     173        0        1       0.0000       23.3300        8.5100       12.5000
     174        0        1       0.0000       22.1000        9.2200       12.5000
     175        0        1       0.0000       22.1000       10.6400       12.5000
     176        0        1       0.0000       23.3300       11.3400       12.5000
     177        0        1       0.0000       25.7900        8.5100       12.5000
     178        0        1       0.0000       24.5600        9.2200       12.5000
     179        0        1       0.0000       24.5600       10.6400       12.5000
     180        0        1       0.0000       25.7900       11.3400       12.5000
     181        0        1       0.0000       28.2500        8.5100       12.5000
     182        0        1       0.0000       27.0200        9.2200       12.5000
     183        0        1       0.0000       27.0200       10.6400       12.5000
     184        0        1       0.0000       28.2500       11.3400       12.5000
     185        0        1       0.0000       30.7000        8.5100       12.5000
     186        0        1       0.0000       29.4700        9.2200       12.5000
     187        0        1       0.0000       29.4700       10.6400       12.5000
     188        0        1       0.0000       30.7000       11.3400       12.5000
     189        0        1       0.0000       33.1600        8.5100       12.5000
     190        0        1       0.0000       31.9300        9.2200       12.5000
     191        0        1       0.0000       31.9300       10.6400       12.5000
     192        0        1       0.0000       33.1600       11.3400       12.5000
     193        0        1       0.0000       35.6100        8.5100       12.5000
     194        0        1       0.0000       34.3800        9.2200       12.5000
     195        0        1       0.0000       34.3800       10.6400       12.5000
     196        0        1       0.0000       35.6100       11.3400       12.5000
     197        0        1       0.0000       38.0700        8.5100       12.5000
     198        0        1       0.0000       36.8400        9.2200       12.5000
     199        0        1       0.0000       36.8400       10.6400       12.5000
     200        0        1       0.0000       38.0700       11.3400       12.5000
     201        0        1       0.0000       40.5300        8.5100       12.5000
     202        0        1       0.0000       39.3000        9.2200       12.5000
     203        0        1       0.0000       39.3000       10.6400       12.5000
     204        0        1       0.0000       40.5300       11.3400       12.5000
     205        0        1       0.0000        1.2300       12.7600       12.5000
     206        0        1       0.0000        0.0000       13.4700       12.5000
     207        0        1       0.0000        0.0000       14.8900       12.5000
     208        0        1       0.0000        1.2300       15.6000       12.5000
     209        0        1       0.0000        3.6800       12.7600       12.5000
     210        0        1       0.0000        2.4600       13.4700       12.5000
     211        0        1       0.0000        2.4600       14.8900       12.5000
     212        0        1       0.0000        3.6800       15.6000       12.5000
     213        0        1       0.0000        6.1400       12.7600       12.5000
     214        0        1       0.0000        4.9100       13.4700       12.5000
     215        0        1       0.0000        4.9100       14.8900       12.5000
     216        0        1       0.0000        6.1400       15.6000       12.5000
     217        0        1       0.0000        8.6000       12.7600       12.5000
     218        0        1       0.0000        7.3700       13.4700       12.5000
     219        0        1       0.0000        7.3700       14.8900       12.5000
     220        0        1       0.0000        8.6000       15.6000       12.5000
     221        0        1       0.0000       11.0500       12.7600       12.5000
     222        0        1       0.0000        9.8200       13.4700       12.5000
     223        0        1       0.0000        9.8200       14.8900       12.5000
     224        0        1       0.0000       11.0500       15.6000       12.5000
     225        0        1       0.0000       13.5100       12.7600       12.5000
     226        0        1       0.0000       12.2800       13.4700       12.5000
     227        0        1       0.0000       12.2800       14.8900       12.5000
     228        0        1       0.0000       13.5100       15.6000       12.5000
     229        0        1       0.0000       15.9600       12.7600       12.5000
     230        0        1       0.0000       14.7400       13.4700       12.5000
     231        0        1       0.0000       14.7400       14.8900       12.5000
     232        0        1       0.0000       15.9600       15.6000       12.5000
     233        0        1       0.0000       18.4200       12.7600       12.5000
     234        0        1       0.0000       17.1900       13.4700       12.5000
     235        0        1       0.0000       17.1900       14.8900       12.5000
     236        0        1       0.0000       18.4200       15.6000       12.5000
     237        0        1       0.0000       20.8800       12.7600       12.5000
     238        0        1       0.0000       19.6500       13.4700       12.5000
     239        0        1       0.0000       19.6500       14.8900       12.5000
     240        0        1       0.0000       20.8800       15.6000       12.5000
     241        0        1       0.0000       23.3300       12.7600       12.5000
     242        0        1       0.0000       22.1000       13.4700       12.5000
     243        0        1       0.0000       22.1000       14.8900       12.5000
     244        0        1       0.0000       23.3300       15.6000       12.5000
     245        0        1       0.0000       25.7900       12.7600       12.5000
     246        0        1       0.0000       24.5600       13.4700       12.5000
     247        0        1       0.0000       24.5600       14.8900       12.5000
     248        0        1       0.0000       25.7900       15.6000       12.5000
     249        0        1       0.0000       28.2500       12.7600       12.5000
     250        0        1       0.0000       27.0200       13.4700       12.5000
     251        0        1       0.0000       27.0200       14.8900       12.5000
     252        0        1       0.0000       28.2500       15.6000       12.5000
     253        0        1       0.0000       30.7000       12.7600       12.5000
     254        0        1       0.0000       29.4700       13.4700       12.5000
     255        0        1       0.0000       29.4700       14.8900       12.5000
     256        0        1       0.0000       30.7000       15.6000       12.5000
     257        0        1       0.0000       33.1600       12.7600       12.5000
     258        0        1       0.0000       31.9300       13.4700       12.5000
     259        0        1       0.0000       31.9300       14.8900       12.5000
     260        0        1       0.0000       33.1600       15.6000       12.5000
     261        0        1       0.0000       35.6100       12.7600       12.5000
     262        0        1       0.0000       34.3800       13.4700       12.5000
     263        0        1       0.0000       34.3800       14.8900       12.5000
     264        0        1       0.0000       35.6100       15.6000       12.5000
     265        0        1       0.0000       38.0700       12.7600       12.5000
     266        0        1       0.0000       36.8400       13.4700       12.5000
     267        0        1       0.0000       36.8400       14.8900       12.5000
     268        0        1       0.0000       38.0700       15.6000       12.5000
     269        0        1       0.0000       40.5300       12.7600       12.5000
     270        0        1       0.0000       39.3000       13.4700       12.5000
     271        0        1       0.0000       39.3000       14.8900       12.5000
     272        0        1       0.0000       40.5300       15.6000       12.5000
     273        0        1       0.0000        1.2300       17.0200       12.5000
     274        0        1       0.0000        0.0000       17.7300       12.5000
     275        0        1       0.0000        0.0000       19.1400       12.5000
     276        0        1       0.0000        1.2300       19.8500       12.5000
     277        0        1       0.0000        3.6800       17.0200       12.5000
     278        0        1       0.0000        2.4600       17.7300       12.5000
     279        0        1       0.0000        2.4600       19.1400       12.5000
     280        0        1       0.0000        3.6800       19.8500       12.5000
     281        0        1       0.0000        6.1400       17.0200       12.5000
     282        0        1       0.0000        4.9100       17.7300       12.5000
     283        0        1       0.0000        4.9100       19.1400       12.5000
     284        0        1       0.0000        6.1400       19.8500       12.5000
     285        0        1       0.0000        8.6000       17.0200       12.5000
     286        0        1       0.0000        7.3700       17.7300       12.5000
     287        0        1       0.0000        7.3700       19.1400       12.5000
     288        0        1       0.0000        8.6000       19.8500       12.5000
     289        0        1       0.0000       11.0500       17.0200       12.5000
     290        0        1       0.0000        9.8200       17.7300       12.5000
     291        0        1       0.0000        9.8200       19.1400       12.5000
     292        0        1       0.0000       11.0500       19.8500       12.5000
     293        0        1       0.0000       13.5100       17.0200       12.5000
     294        0        1       0.0000       12.2800       17.7300       12.5000
     295        0        1       0.0000       12.2800       19.1400       12.5000
     296        0        1       0.0000       13.5100       19.8500       12.5000
     297        0        1       0.0000       15.9600       17.0200       12.5000
     298        0        1       0.0000       14.7400       17.7300       12.5000
     299        0        1       0.0000       14.7400       19.1400       12.5000
     300        0        1       0.0000       15.9600       19.8500       12.5000
     301        0        1       0.0000       18.4200       17.0200       12.5000
     302        0        1       0.0000       17.1900       17.7300       12.5000
     303        0        1       0.0000       17.1900       19.1400       12.5000
     304        0        1       0.0000       18.4200       19.8500       12.5000
     305        0        1       0.0000       20.8800       17.0200       12.5000
     306        0        1       0.0000       19.6500       17.7300       12.5000
     307        0        1       0.0000       19.6500       19.1400       12.5000
     308        0        1       0.0000       20.8800       19.8500       12.5000
     309        0        1       0.0000       23.3300       17.0200       12.5000
     310        0        1       0.0000       22.1000       17.7300       12.5000
     311        0        1       0.0000       22.1000       19.1400       12.5000
     312        0        1       0.0000       23.3300       19.8500       12.5000
     313        0        1       0.0000       25.7900       17.0200       12.5000
     314        0        1       0.0000       24.5600       17.7300       12.5000
     315        0        1       0.0000       24.5600       19.1400       12.5000
     316        0        1       0.0000       25.7900       19.8500       12.5000
     317        0        1       0.0000       28.2500       17.0200       12.5000
     318        0        1       0.0000       27.0200       17.7300       12.5000
     319        0        1       0.0000       27.0200       19.1400       12.5000
     320        0        1       0.0000       28.2500       19.8500       12.5000
     321        0        1       0.0000       30.7000       17.0200       12.5000
     322        0        1       0.0000       29.4700       17.7300       12.5000
     323        0        1       0.0000       29.4700       19.1400       12.5000
     324        0        1       0.0000       30.7000       19.8500       12.5000
     325        0        1       0.0000       33.1600       17.0200       12.5000
     326        0        1       0.0000       31.9300       17.7300       12.5000
     327        0        1       0.0000       31.9300       19.1400       12.5000
     328        0        1       0.0000       33.1600       19.8500       12.5000
     329        0        1       0.0000       35.6100       17.0200       12.5000
     330        0        1       0.0000       34.3800       17.7300       12.5000
     331        0        1       0.0000       34.3800       19.1400       12.5000
     332        0        1       0.0000       35.6100       19.8500       12.5000
     333        0        1       0.0000       38.0700       17.0200       12.5000
     334        0        1       0.0000       36.8400       17.7300       12.5000
     335        0        1       0.0000       36.8400       19.1400       12.5000
     336        0        1       0.0000       38.0700       19.8500       12.5000
     337        0        1       0.0000       40.5300       17.0200       12.5000
     338        0        1       0.0000       39.3000       17.7300       12.5000
     339        0        1       0.0000       39.3000       19.1400       12.5000
     340        0        1       0.0000       40.5300       19.8500       12.5000
     341        0        1       0.0000        1.2300       21.2700       12.5000
     342        0        1       0.0000        0.0000       21.9800       12.5000
     343        0        1       0.0000        0.0000       23.4000       12.5000
     344        0        1       0.0000        1.2300       24.1100       12.5000
     345        0        1       0.0000        3.6800       21.2700       12.5000
     346        0        1       0.0000        2.4600       21.9800       12.5000
     347        0        1       0.0000        2.4600       23.4000       12.5000
     348        0        1       0.0000        3.6800       24.1100       12.5000
     349        0        1       0.0000        6.1400       21.2700       12.5000
     350        0        1       0.0000        4.9100       21.9800       12.5000
     351        0        1       0.0000        4.9100       23.4000       12.5000
     352        0        1       0.0000        6.1400       24.1100       12.5000
     353        0        1       0.0000        8.6000       21.2700       12.5000
     354        0        1       0.0000        7.3700       21.9800       12.5000
     355        0        1       0.0000        7.3700       23.4000       12.5000
     356        0        1       0.0000        8.6000       24.1100       12.5000
     357        0        1       0.0000       11.0500       21.2700       12.5000
     358        0        1       0.0000        9.8200       21.9800       12.5000
     359        0        1       0.0000        9.8200       23.4000       12.5000
     360        0        1       0.0000       11.0500       24.1100       12.5000
     361        0        1       0.0000       13.5100       21.2700       12.5000
     362        0        1       0.0000       12.2800       21.9800       12.5000