LAMMPS (22 Jul 2025 - Update 3)
  using 1 OpenMP thread(s) per MPI task
echo screen
Reading data file ...
  orthogonal box = (0 0 0) to (41.753 42.54 130)
  1 by 2 by 4 MPI processor grid
  reading atoms ...
  15274 atoms
  scanning bonds ...
  2 = max bonds/atom
  scanning angles ...
  1 = max angles/atom
  orthogonal box = (0 0 0) to (41.753 42.54 130)
  1 by 2 by 4 MPI processor grid
  reading bonds ...
  9196 bonds
  reading angles ...
  4598 angles
Finding 1-2 1-3 1-4 neighbors ...
  special bond factors lj:    0        0        0       
  special bond factors coul:  0        0        0       
     2 = max # of 1-2 neighbors
     1 = max # of 1-3 neighbors
     1 = max # of 1-4 neighbors
     2 = max # of special neighbors
  special bonds CPU = 0.006 seconds
  read_data CPU = 0.255 seconds
680 atoms in group gra
644 atoms in group PORE
13794 atoms in group fluidmols
78 atoms in group Potassium
78 atoms in group Chloride
13950 atoms in group mixfluids
4598 atoms in group oxygen
680 atoms in group gra1
644 atoms in group gra2
PPPM initialization ...
  using 12-bit tables for long-range coulomb
  G vector (1/distance) = 0.24768177
  grid = 30 30 72
  stencil order = 5
  estimated absolute RMS force accuracy = 0.003399422
  estimated relative force accuracy = 1.0237258e-05
  using double precision FFTW3
  3d grid and FFT values/proc = 20350 8100
Generated 15 of 15 mixed pair_coeff terms from arithmetic mixing rule
WARNING: Neighbor exclusions used with KSpace solver may give inconsistent Coulombic energies (src/neighbor.cpp:671)
Neighbor list info ...
  update: every = 1 steps, delay = 0 steps, check = yes
  max neighbors/atom: 2000, page size: 100000
  master list distance cutoff = 14
  ghost atom cutoff = 14
  binsize = 7, bins = 6 7 19
  1 neighbor lists, perpetual/occasional/extra = 1 0 0
  (1) pair lj/cut/coul/long, perpetual
      attributes: half, newton on
      pair build: half/bin/newton
      stencil: half/bin/3d
      bin: standard
Per MPI rank memory allocation (min/avg/max) = 11.46 | 15.3 | 22.62 Mbytes
   Step          Temp          E_pair         E_mol          TotEng         Press     
         0   0              60605.217      13807.755      74412.973      154824.88    
       245   0             -78611.986      4121.0994     -74490.887     -2237.9969    
Loop time of 28.6336 on 8 procs for 245 steps with 15274 atoms

87.0% CPU use with 8 MPI tasks x 1 OpenMP threads

Minimization stats:
  Stopping criterion = energy tolerance
  Energy initial, next-to-last, final = 
      74412.9725151384  -74483.5822771957  -74490.8868367148
  Force two-norm initial, final = 335250.62 111.7471
  Force max component initial, final = 210831.74 16.424789
  Final line search alpha, max atom move = 0.0032019719 0.052591714
  Iterations, force evaluations = 245 396

MPI task timing breakdown:
Section |  min time  |  avg time  |  max time  |%varavg| %total
---------------------------------------------------------------
Pair    | 5.6956     | 13.07      | 20.629     | 148.6 | 45.65
Bond    | 0.018638   | 0.033279   | 0.048848   |   6.2 |  0.12
Kspace  | 5.6621     | 13.226     | 20.622     | 148.1 | 46.19
Neigh   | 1.3229     | 1.3275     | 1.3307     |   0.2 |  4.64
Comm    | 0.54034    | 0.57377    | 0.61737    |   3.6 |  2.00
Output  | 0          | 0          | 0          |   0.0 |  0.00
Modify  | 0.00236    | 0.0032446  | 0.0046436  |   1.2 |  0.01
Other   |            | 0.4002     |            |       |  1.40

Nlocal:        1909.25 ave        2661 max        1039 min
Histogram: 2 0 0 2 0 0 0 1 1 2
Nghost:          11735 ave       15275 max        9005 min
Histogram: 4 0 0 0 0 0 2 0 0 2
Neighs:         830281 ave 1.29657e+06 max      325485 min
Histogram: 2 0 0 1 1 0 1 1 1 1

Total # of neighbors = 6642250
Ave neighs/atom = 434.87299
Ave special neighs/atom = 1.8062066
Neighbor list builds = 13
Dangerous builds = 0
Finding SHAKE clusters ...
       0 = # of size 2 clusters
       0 = # of size 3 clusters
       0 = # of size 4 clusters
    4598 = # of frozen angles
  find clusters CPU = 0.002 seconds
  1 rigid bodies with 680 atoms
PPPM initialization ...
  using 12-bit tables for long-range coulomb
  G vector (1/distance) = 0.24768177
  grid = 30 30 72
  stencil order = 5
  estimated absolute RMS force accuracy = 0.003399422
  estimated relative force accuracy = 1.0237258e-05
  using double precision FFTW3
  3d grid and FFT values/proc = 20350 8100
Generated 15 of 15 mixed pair_coeff terms from arithmetic mixing rule
WARNING: Neighbor exclusions used with KSpace solver may give inconsistent Coulombic energies (src/neighbor.cpp:671)
Per MPI rank memory allocation (min/avg/max) = 12.46 | 16.55 | 24.62 Mbytes
   Step          Temp          E_pair         E_mol          TotEng         Press          Volume    
         0   418.59558     -78611.986      0             -66138.19       1028.5141      230902.44    
      5000   303.1665      -62672.842      0             -53638.735      130.84394      196854.75    
Loop time of 326.122 on 8 procs for 5000 steps with 15274 atoms

Performance: 1.325 ns/day, 18.118 hours/ns, 15.332 timesteps/s, 234.176 katom-step/s
87.0% CPU use with 8 MPI tasks x 1 OpenMP threads

MPI task timing breakdown:
Section |  min time  |  avg time  |  max time  |%varavg| %total
---------------------------------------------------------------
Pair    | 41.672     | 111.19     | 171.07     | 464.1 | 34.09
Bond    | 0.009304   | 0.010859   | 0.012116   |   0.8 |  0.00
Kspace  | 80.009     | 139.67     | 209.48     | 414.6 | 42.83
Neigh   | 40.907     | 40.958     | 41.009     |   0.4 | 12.56
Comm    | 8.7635     | 9.3933     | 10.153     |  14.0 |  2.88
Output  | 3.7607e-05 | 4.1544e-05 | 5.7234e-05 |   0.0 |  0.00
Modify  | 18.478     | 18.709     | 18.957     |   3.6 |  5.74
Other   |            | 6.198      |            |       |  1.90

Nlocal:        1909.25 ave        2550 max        1074 min
Histogram: 2 0 0 2 0 0 0 0 1 3
Nghost:        12741.6 ave       16108 max        9752 min
Histogram: 2 2 0 0 0 0 0 2 0 2
Neighs:         944367 ave 1.37384e+06 max      360126 min
Histogram: 2 0 0 0 2 0 0 0 2 2

Total # of neighbors = 7554936
Ave neighs/atom = 494.62721
Ave special neighs/atom = 1.8062066
Neighbor list builds = 285
Dangerous builds = 0PPPPM initialization ...
  using 12-bit tables for long-range coulomb
  G vector (1/distance) = 0.2509928
  grid = 30 30 72
  stencil order = 5
  estimated absolute RMS force accuracy = 0.0029000158
  estimated relative force accuracy = 8.7333113e-06
  using double precision FFTW3
  3d grid and FFT values/proc = 20350 8100
Generated 15 of 15 mixed pair_coeff terms from arithmetic mixing rule
WARNING: Neighbor exclusions used with KSpace solver may give inconsistent Coulombic energies (src/neighbor.cpp:671)
Per MPI rank memory allocation (min/avg/max) = 12.53 | 19.18 | 25.27 Mbytes
   Step           Lx             Ly             Lz           Press       c_fluidtemp       KinEng         E_vdwl         E_coul         E_long         PotEng    
         0   39.590727      40.33697       123.26766      644.45502      324.11031      9034.1065      9767.8471      167645.25     -240085.93     -62672.838    
       500   39.590727      40.33697       123.26766     -147.22438      297.02871      8284.1486      9864.4063      166651.72     -240103.13     -63587.001    
      1000   39.590727      40.33697       123.26766     -398.49555      304.29567      8487.6552      9735.4024      166330.91     -240117.58     -64051.269    
      1500   39.590727      40.33697       123.26766     -141.06269      304.04695      8478.0701      9941.282       166164        -240110.06     -64004.781    
      2000   39.590727      40.33697       123.26766     -186.09935      301.59032      8411.5205      9976.9777      165913.4      -240112.06     -64221.687    
      2500   39.590727      40.33697       123.26766      74.131336      300.37618      8374.2956      10144.27       165709.94     -240122.05     -64267.84     
      3000   39.590727      40.33697       123.26766      55.211239      300.831        8391.2164      9995.2179      166026.7      -240093.94     -64072.026    
      3500   39.590727      40.33697       123.26766      364.12559      301.91794      8418.5425      10262.516      165641.9      -240121.17     -64216.753    
      4000   39.590727      40.33697       123.26766      300.87176      300.65879      8383.7314      10288.019      165432.71     -240108.13     -64387.4      
      4500   39.590727      40.33697       123.26766      235.09966      304.22531      8481.9032      10053.194      165933.5      -240112.08     -64125.38     
      5000   39.590727      40.33697       123.26766      418.26348      297.7625       8302.4842      10294.628      165530.28     -240105.28     -64280.367    
      5500   39.590727      40.33697       123.26766      463.42097      301.31229      8400.9904      10277.467      165518.37     -240120.38     -64324.549    
      6000   39.590727      40.33697       123.26766      536.19599      300.69697      8384.5815      10299.994      165378.73     -240116.89     -64438.168    
      6500   39.590727      40.33697       123.26766      380.55844      295.83653      8248.1583      10244.939      165282.3      -240121.17     -64593.93     
      7000   39.590727      40.33697       123.26766      539.86568      301.81904      8414.3043      10269.492      165215.47     -240117.71     -64632.755    
      7500   39.590727      40.33697       123.26766      730.46075      299.62152      8352.3613      10354.305      165221.26     -240122.5      -64546.933    
      8000   39.590727      40.33697       123.26766      557.7586       300.43873      8376.2716      10158.744      165384.38     -240117.49     -64574.366    
      8500   39.590727      40.33697       123.26766      690.77518      299.65259      8353.0237      10227.581      165062.8      -240132.84     -64842.465    
      9000   39.590727      40.33697       123.26766      907.38079      300.56227      8380.2676      10157.821      165304.17     -240132.75     -64670.753    
      9500   39.590727      40.33697       123.26766      1167.6021      298.91276      8332.047       10456.911      164778.03     -240120.85     -64885.903    
     10000   39.590727      40.33697       123.26766      853.0505       298.01588      8306.7685      10166.147      165006.56     -240136.21     -64943.499    
     10500   39.590727      40.33697       123.26766      727.37716      301.20854      8396.9794      10189.703      165158.48     -240122.34     -64774.158    
     11000   39.590727      40.33697       123.26766      518.12348      301.51553      8405.3874      9951.8389      165384.99     -240127.7      -64790.868    
     11500   39.590727      40.33697       123.26766      680.88605      304.16914      8478.3151      10135.895      165119.17     -240113.12     -64858.05     
     12000   39.590727      40.33697       123.26766      769.42822      296.95601      8277.2712      10266.275      164834.23     -240126.5      -65025.991    
     12500   39.590727      40.33697       123.26766      937.4516       300.10359      8365.0768      10273.477      165109.31     -240119.67     -64736.886    
     13000   39.590727      40.33697       123.26766      701.39348      302.64515      8436.1026      10087.607      165252.92     -240120.31     -64779.781    
     13500   39.590727      40.33697       123.26766      414.21304      298.48856      8321.2196      9911.335       165460.84     -240128.65     -64756.475    
     14000   39.590727      40.33697       123.26766      438.11026      302.5018       8433.4211      9986.9914      165293.43     -240125.94     -64845.511    
     14500   39.590727      40.33697       123.26766      377.02048      297.49349      8295.3773      9988.1184      165285.1      -240129.89     -64856.664    
     15000   39.590727      40.33697       123.26766      321.13889      304.75158      8494.8473      9923.7306      165407.93     -240110.64     -64778.979    
     15500   39.590727      40.33697       123.26766      468.46305      298.6692       8328.1228      10071.462      165332.11     -240117.38     -64713.811    
     16000   39.590727      40.33697       123.26766      461.83237      299.37742      8345.6876      10016.81       165562.51     -240109.1      -64529.774    
     16500   39.590727      40.33697       123.26766      312.55759      307.01149      8559.7442      9948.4017      165548.57     -240113.07     -64616.107    
     17000   39.590727      40.33697       123.26766      218.70639      299.09079      8336.8258      9873.2945      165607.56     -240123.45     -64642.597    
     17500   39.590727      40.33697       123.26766      205.55011      302.33848      8427.2541      9857.1854      165565.4      -240108        -64685.415    
     18000   39.590727      40.33697       123.26766      238.03011      305.032        8502.5463      9927.5503      165451.64     -240127        -64747.807    
     18500   39.590727      40.33697       123.26766      209.5751       303.8135       8468.4522      9885.871       165580.58     -240121.78     -64655.329    
     19000   39.590727      40.33697       123.26766     -15.113572      299.51546      8348.5605      9730.2716      165773.73     -240115.86     -64611.855    
     19500   39.590727      40.33697       123.26766      306.52774      295.6568       8242.0341      10074.813      165305.34     -240110.07     -64729.912    
     20000   39.590727      40.33697       123.26766      1.0507218      300.75698      8383.4234      9647.1731      166005.43     -240110.17     -64457.57     
     20500   39.590727      40.33697       123.26766      240.94433      299.87429      8358.791       9933.9536      165584.03     -240130.81     -64612.829    
     21000   39.590727      40.33697       123.26766      216.25589      303.9878       8473.3366      9870.238       165624.39     -240113.02     -64618.388    
     21500   39.590727      40.33697       123.26766      332.76814      298.78836      8329.4102      10051.902      165375.65     -240119.85     -64692.296    
     22000   39.590727      40.33697       123.26766      284.84559      297.55575      8294.7318      9987.8229      165421.56     -240126.35     -64716.96     
     22500   39.590727      40.33697       123.26766      228.14873      300.50868      8376.3026      9848.8674      165556.31     -240112.04     -6470..858    
     23000   39.590727      40.33697       123.26766      430.80202      299.69743      8353.9761      9998.5356      165519.97     -240119.11     -64600.604    
     23500   39.590727      40.33697       123.26766      351.74163      305.38105      8512.3687      9871.5751      165646.83     -240126.67     -64608.263    
     24000   39.590727      40.33697       123.26766      418.75368      299.97778      8362.0247      9985.1114      165498.81     -240117.16     -64633.237    
     24500   39.590727      40.33697       123.26766      629.32532      301.80922      8415.7631      10217.646      165156.88     -240117.56     -64743.036    
     25000   39.590727      40.33697       123.26766      393.59207      298.27195      8313.9845      9911.5642      165630.83     -240127.43     -64585.035    
     25500   39.590727      40.33697       123.26766      219.63853      302.25859      8425.3622      9815.6876      165534.23     -240122.48     -64772.56     
     26000   39.590727      40.33697       123.26766      621.30643      296.91466      8276.1294      10195.949      165138.74     -240124.48     -64789.793    
     26500   39.590727      40.33697       123.26766      490.03957      301.66313      8408.6113      9965.0929      165486.63     -240124.22     -64672.499    
     27000   39.590727      40.33697       123.26766      527.27159      303.0779       8447.8601      10075.395      165315.26     -240122.25     -64731.595    
     27500   39.590727      40.33697       123.26766      531.98611      299.53354      8349.0986      10008.282      165587.61     -240124.33     -64528.444    
     28000   39.590727      40.33697       123.26766      647.82234      301.64465      8408.7597      10208.86       165150.51     -240110.97     -64751.596    
     28500   39.590727      40.33697       123.26766      600.7584       300.19681      8367.6         10071.531      165412.78     -240121.73     -64637.414    
     29000   39.590727      40.33697       123.26766      415.2021       302.87115      8442.3146      9838.4061      165748.76     -240123.4      -64536.235    
     29500   39.590727      40.33697       123.26766      319.1297       296.55145      8265.9451      9805.2472      165772.24     -240114.68     -64537.191    
     30000   39.590727      40.33697       123.26766      403.5569       296.74203      8271.3175      9912.7963      165542.75     -240127.37     -64671.824    
     30500   39.590727      40.33697       123.26766      169.28485      296.7058       8270.506       9799.6433      165502.96     -240129.62     -64827.017    
     31000   39.590727      40.33697       123.26766      632.67712      302.38419      8429.4266      10107.702      165336.23     -240120.73     -64676.801    
     31500   39.590727      40.33697       123.26766      448.56958      299.1976       8340.2322      9998.506       165540.48     -240113.07     -64574.086    
     32000   39.590727      40.33697       123.26766      538.59751      300.67547      8380.9257      10078.142      165404.72     -240119.19     -64636.321    
     32500   39.590727      40.33697       123.26766      298.54586      296.89888      8275.7052      9993.631       165362.97     -240113.22     -64756.622    
     33000   39.590727      40.33697       123.26766      548.23277      293.97723      8194.3548      10113.313      165269.43     -240127.83     -64745.083    
     33500   39.590727      40.33697       123.26766      751.16891      300.28281      8369.9706      10255.23       165172.66     -240127.18     -64699.292    
     34000   39.590727      40.33697       123.26766      338.59952      301.23698      8396.7867      9986.2384      165239.94     -240121.98     -64895.795    
     34500   39.590727      40.33697       123.26766      379.2363       304.29799      8482.4238      9916.6346      165609.16     -240116.4      -64590.608    
     35000   39.590727      40.33697       123.26766      301.24509      298.3781       8316.8773      9893.5438      165536.76     -240104        -64673.694    
     35500   39.590727      40.33697       123.26766      487.55405      296.79478      8272.9501      10143.015      165222.33     -240116.83     -64751.491    
     36000   39.590727      40.33697       123.26766      438.09965      303.38158      8456.3737      10050.6        165349.37     -240129.98     -64730.015    
     36500   39.590727      40.33697       123.26766      241.43717      302.28664      8426.3147      9815.0738      165696.81     -240131.65     -64619.763    
     37000   39.590727      40.33697       123.26766      379.60927      295.26057      8230.0003      10014.324      165354.7      -240127.11     -64758.092    
     37500   39.590727      40.33697       123.26766      305.41123      298.00973      8306.6222      9943.9502      165495.07     -240123.48     -64684.463    
     38000   39.590727      40.33697       123.26766      529.1709       302.81681      8441.0023      10114.098      165398.71     -240123.33     -64610.521    
     38500   39.590727      40.33697       123.26766      311.49378      300.09535      8364.8227      10010.349      165319.59     -240123.28     -64793.348    
     39000   39.590727      40.33697       123.26766      239.55464      299.43305      8346.5157      9859.6977      165734.16     -240121.22     -64527.365    
     39500   39.590727      40.33697       123.26766      443.16545      302.73924      8438.4197      10040.336      165433.43     -240122.37     -64648.603    
     40000   39.590727      40.33697       123.26766      40.422468      296.61725      8268.1095      9732.7471      165646.56     -240118.24     -64738.926    
     40500   39.590727      40.33697       123.26766      578.71682      297.16891      8283.3356      10169.233      165291.61     -240116.75     -64655.912    
     41000   39.590727      40.33697       123.26766      191.87604      297.17022      8283.1979      9854.8635      165622.62     -240120.35     -64642.869    
     41500   39.590727      40.33697       123.26766      217.87849      303.62993      8463.5209      9871.2147      165557.44     -240123.5      -64694.842    
     42000   39.590727      40.33697       123.26766      332.41383      302.51267      8432.1358      9955.3921      165481.89     -240125.08     -64687.802    
     42500   39.590727      40.33697       123.26766      348.53593      298.10585      8311.2272      10088.686      165149.15     -240124.81     -64886.973    
     43000   39.590727      40.33697       123.26766      464.14082      300.23142      8368.7824      10155.593      165154.84     -240123.02     -64812.585    
     43500   39.590727      40.33697       123.26766      526.24801      300.37478      8374.1849      10090.665      165311.2      -240111.74     -64709.877    
     44000   39.590727      40.33697       123.26766      221.69724      301.80785      8412.6517      9807.6387      165666.52     -240107.08     -64632.921    
     44500   39.590727      40.33697       123.26766      505.28862      302.66377      8438.1143      10034.003      165415.3      -240130.16     -64680.855    
     45000   39.590727      40.33697       123.26766      149.1349       297.63182      8296.0864      9699.2083      165658.41     -240126.81     -64769.189    
     45500   39.590727      40.33697       123.26766      396.88454      295.51086      8237.4166      9985.3236      165356.39     -240122.88     -64781.17     
     46000   39.590727      40.33697       123.26766      411.67324      302.15271      8422.1119      9905.6938      165701.05     -240111.18     -64504.436    
     46500   39.590727      40.33697       123.26766      530.8939       297.41858      8290.1336      10101.852      165284.92     -240121.7      -64734.93     
     47000   39.590727      40.33697       123.26766      566.38535      299.5936       8351.4415      10090.721      165233.49     -240110.8      -64786.597    
     47500   39.590727      40.33697       123.26766      867.72543      295.29226      8231.8369      10282.553      165199.92     -240126.12     -64643.643    
     48000   39.590727      40.33697       123.26766      537.23756      299.57194      8350.2268      10052.8        165262.65     -240135.37     -64819.919    
     48500   39.590727      40.33697       123.26766      606.91299      296.01438      8250.9887      10166.13       165205.25     -240127.49     -64756.106    
     49000   39.590727      40.33697       123.26766      528.7404       297.13759      8282.6607      10097.804      165237.38     -240126.58     -64791.39     
     49500   39.590727      40.33697       123.26766      685.44772      300.3512       8372.3091      10055.984      165520.26     -240125.18     -64548.934    
     50000   39.590727      40.33697       123.26766      490.01135      295.87644      8247.8983      9998.4633      165505.89     -240122.59     -64618.235    
     50500   39.590727      40.33697       123.26766      337.04988      299.64507      8352.2908      9869.8724      165665.74     -240133.94     -64598.335    
     51000   39.590727      40.33697       123.26766      329.35375      302.8904       8442.7202      9877.5649      165581.54     -240119.76     -64660.654    
     51500   39.590727      40.33697       123.26766      640.89373      300.30041      8371.077       10211.176      165218.14     -240122.91     -64693.597    
     52000   39.590727      40.33697       123.26766      557.33524      298.12288      8309.747       10163.353      165234.48     -240118.54     -64720.709    
     52500   39.590727      40.33697       123.26766      375.47738      303.2941       8454.5173      9995.6971      165382.82     -240126.17     -64747.648    
     53000   39.590727      40.33697       123.26766      471.61983      297.78246      8300.2643      10050.561      165407.56     -240114.05     -64655.935    
     53500   39.590727      40.33697       123.26766      156.64151      298.08109      8308.7594      9751.1187      165890.54     -240118.62     -64476.966    
     54000   39.590727      40.33697       123.26766      207.95438      299.65226      8352.3738      9729.6844      165855.99     -240114.07     -64528.398    
     54500   39.590727      40.33697       123.26766      452.99246      299.38219      8344.9281      10029.741      165408.88     -240121.36     -64682.744    
     55000   39.590727      40.33697       123.26766      300.00261      302.195        8423.2512      9928.4498      165482.02     -240123        -64712.524    
     55500   39.590727      40.33697       123.26766      443.76026      302.6998       8437.3962      9997.3256      165563.65     -240128.15     -64567.169    
     56000   39.590727      40.33697       123.26766      297.26204      298.15376      8311.2526      9913.5217      165589.31     -240116.81     -64613.977    
     56500   39.590727      40.33697       123.26766      339.19158      293.91032      8192.3359      9989.0366      165503.26     -240120.46     -64628.159    
     57000   39.590727      40.33697       123.26766      163.00594      298.64934      8324.6683      9818.2336      165557.9      -240127.65     -64751.515    
     57500   39.590727      40.33697       123.26766      248.40957      297.90045      8303.5588      9879.1123      165585.17     -240107.29     -64643.002    
     58000   39.590727      40.33697       123.26766     -34.851699      302.98665      8445.5565      9520.3342      166081.77     -240136.75     -64534.643    
     58500   39.590727      40.33697       123.26766      470.18337      299.25252      8342.6712      10057.121      165409.12     -240117.1      -64650.857    
     59000   39.590727      40.33697       123.26766      424.2259       298.81955      8329.1804      10045.298      165377.94     -240134.62     -64711.382    
     59500   39.590727      40.33697       123.26766      422.59052      298.35587      8316.8142      9963.878       165509.31     -240119.08     -64645.894    
     60000   39.590727      40.33697       123.26766      365.57228      293.81416      8191.4458      9979.404       165339.12     -240125.94     -64807.418    
     60500   39.590727      40.33697       123.26766      524.98245      297.24255      8285.2418      10136.109      165188.42     -240112.69     -64788.164    
     61000   39.590727      40.33697       123.26766      445.04574      298.23021      8312.7805      9993.8701      165390.34     -240131.04     -64746.832    
     61500   39.590727      40.33697       123.26766      476.26305      303.57652      8461.8244      10036.132      165302.68     -240111.2      -64772.387    
     62000   39.590727      40.33697       123.26766      516.73945      299.76512      8355.6835      9987.4557      165478.19     -240112.99     -64647.341    
     62500   39.590727      40.33697       123.26766      318.75355      298.40125      8317.9815      9875.6572      165536.31     -240128.44     -64716.471    
     63000   39.590727      40.33697       123.26766      456.07469      300.30893      8370.695       10022.606      165422.8      -240121.39     -64675.988    
     63500   39.590727      40.33697       123.26766      179.74818      298.57858      8322.8081      9763.661       165596.64     -240125.53     -64765.23     
     64000   39.590727      40.33697       123.26766      372.10206      303.97316      8473.2391      9889.3837      165514.78     -240118.64     -64714.48     
     64500   39.590727      40.33697       123.26766      390.21629      297.43578      8290.5925      9922.5553      165441.14     -240124.28     -64760.586    
     65000   39.590727      40.33697       123.26766      632.88194      300.37052      8372.5137      10096.543      165289.4      -240124.59     -64738.652    
     65500   39.590727      40.33697       123.26766      728.04658      299.16648      8338.8628      10165.75       165248.27     -240123.46     -64709.438    
     66000   39.590727      40.33697       123.26766      510.79056      295.17821      8227.6784      10062.546      165181.69     -240131.42     -64887.175    
     66500   39.590727      40.33697       123.26766      527.84276      294.42577      8207.5626      10049.838      165256.25     -240130.58     -64824.496    
     67000   39.590727      40.33697       123.26766      491.13329      297.10492      8282.327       10031.471      165384.43     -240118.85     -64702.95     
     67500   39.590727      40.33697       123.26766      200.62742      298.13964      8310.5789      9778.7068      165653.12     -240115.32     -64683.494    
     68000   39.590727      40.33697       123.26766      356.30283      298.43842      8318.5722      9945.9278      165407.13     -240120.21     -64767.15     
     68500   39.590727      40.33697       123.26766      297.58926      302.00675      8418.2191      9915.6433      165490        -240117.31     -64711.662    
     69000   39.590727      40.33697       123.26766      188.33587      299.22243      8340.7537      9781.128       165672.99     -240126.89     -64672.776    
     69500   39.590727      40.33697       123.26766      43.271679      303.44848      8458.1883      9649.1388      165805.31     -240131.76     -64677.313    
     70000   39.590727      40.33697       123.26766      576.31393      304.02058      8474.1539      10072.57       165410.63     -240131.54     -64648.332    
     70500   39.590727      40.33697       123.26766      278.96858      298.1437       8310.341       9982.0029      165229.23     -240125.21     -64913.98     
     71000   39.590727      40.33697       123.26766      151.69003      297.22832      8285.4268      9714.3299      165761.13     -240124.29     -64648.836    
     71500   39.590727      40.33697       123.26766      328.449        301.05962      8391.8217      9934.8711      165398.83     -240128.31     -64794.608    
     72000   39.590727      40.33697       123.26766      451.56         306.11397      8532.4847      10026.79       165307.27     -240124.18     -64790.122    
     72500   39.590727      40.33697       123.26766      253.16811      302.2521       8424.8627      9834.9532      165610.03     -240126.02     -64681.029    
     73000   39.590727      40.33697       123.26766      291.36901      300.25154      8369.081       9890.9854      165391.4      -240125.23     -64842.841    
     73500   39.590727      40.33697       123.26766      588.76783      300.81633      8385.1579      10130.545      165308.99     -240118.34     -64678.805    
     74000   39.590727      40.33697       123.26766      559.52422      298.67218      8325.5781      10148.039      165257.7      -240114.62     -64708.877    
     74500   39.590727      40.33697       123.26766     -32.929971      299.64377      8352.1372      9580.5807      165892.76     -240115.04     -64641.697    
     75000   39.590727      40.33697       123.26766      124.3166       300.09955      8364.9054      9763.989       165596.05     -240139.74     -64779.701    
     75500   39.590727      40.33697       123.26766      578.8851       297.43632      8290.616       10125.345      165340.08     -240123.69     -64658.265    
     76000   39.590727      40.33697       123.26766      437.32191      300.2874       8370.2797      10058.297      165294.02     -240125.73     -64773.41     
     76500   39.590727      40.33697       123.26766      372.32524      302.84922      8441.5591      9930.1885      165540.54     -240121.2      -64650.469    
     77000   39.590727      40.33697       123.26766      398.51974      300.35807      8372.0473      9912.1531      165761.17     -240112.86     -64439.53     
     77500   39.590727      40.33697       123.26766      444.07912      298.03762      8307.6256      10017.032      165415.29     -240125.79     -64693.472    
     78000   39.590727      40.33697       123.26766      289.11608      302.94603      8444.3675      9952.5313      165302.84     -240120.75     -64865.37     
     78500   39.590727      40.33697       123.26766      339.05164      299.27738      8341.937       9936.0619      165381.86     -240130.33     -64812.415    
     79000   39.590727      40.33697       123.26766      619.98675      294.588        8211.3942      10125.208      165295.64     -240122.63     -64701.782    
     79500   39.590727      40.33697       123.26766      432.70222      299.59514      8351.0225      9995.0333      165437.14     -240115.47     -64683.304    
     80000   39.590727      40.33697       123.26766      437.50009      300.88045      8386.6174      10003.446      165475.04     -240121.3      -64642.812    
     80500   39.590727      40.33697       123.26766      403.93936      297.2812       8286.4271      10045.165      165299.05     -240134.16     -64789.952    
     81000   39.590727      40.33697       123.26766      431.60788      298.09513      8310.1771      10011.867      165392.5      -240128.94     -64724.569    
     81500   39.590727      40.33697       123.26766      442.71326      298.65567      8324.6276      10039.962      165411.11     -240126.3      -64675.228    
     82000   39.590727      40.33697       123.26766      45.698986      302.47872      8431.2569      9772.7254      165436.09     -240127        -64918.184    
     82500   39.590727      40.33697       123.26766      375.64673      300.33111      8371.3452      9971.7475      165517.15     -240125.79     -64636.893    
     83000   39.590727      40.33697       123.26766      292.64851      297.43662      8290.6233      9892.6039      165587.62     -240116.88     -64636.656    
     83500   39.590727      40.33697       123.26766      270.58857      295.50594      8236.8807      9909.677       165549.18     -240114.56     -64655.713    
     84000   39.590727      40.33697       123.26766      251.3515       299.26849      8342.1622      9924.7078      165475.9      -240117.86     -64717.254    
     84500   39.590727      40.33697       123.26766      350.71918      302.14432      8421.9787      10049.68       165112        -240130.22     -64968.546    
     85000   39.590727      40.33697       123.26766      328.66099      300.95832      8388.8881      9900.7979      165530.26     -240114.08     -64683.026    
     85500   39.590727      40.33697       123.26766      393.30438      298.18808      8311.6072      9872.1614      165685.67     -240135.07     -64577.239    
     86000   39.590727      40.33697       123.26766      32.58019      298.07959      8309.1618      10050.483      165294.94     -240126.7      -64781.279    
     86500   39.590727      40.33697       123.26766      397.54679      298.89602      8331.6466      10044.636      165343.04     -240125.28     -64737.603    
     87000   39.590727      40.33697       123.26766      156.95691      302.47279      8430.9933      9882.7443      165478.18     -240128.05     -64767.13     
     87500   39.590727      40.33697       123.26766      397.7479       304.74641      8494.473       10012.159      165332.32     -240125.91     -64781.426    
     88000   39.590727      40.33697       123.26766      462.25129      302.93728      8444.0518      9997.9873      165456.09     -240127.66     -64673.582    
     88500   39.590727      40.33697       123.26766      414.8415       298.39864      8317.4676      9971.5747      165561.67     -240122.4      -64589.154    
     89000   39.590727      40.33697       123.26766      254.96475      296.81507      8274.6361      9865.5296      165687.29     -240121.01     -64568.191    
     89500   39.590727      40.33697       123.26766      225.1721       299.33179      8343.9392      9819.2206      165645.54     -240122.04     -64657.279    
     90000   39.590727      40.33697       123.26766      636.39256      299.78577      8356.4141      10140.121      165343.44     -240127.1      -64643.533    
     90500   39.590727      40.33697       123.26766      655.17377      304.39169      8484.5267      10168.256      165288.11     -240107.45     -64651.086    
     91000   39.590727      40.33697       123.26766      283.85577      299.21271      8340.1648      9968.7984      165198.83     -240122.02     -64954.382    
     91500   39.590727      40.33697       123.26766      613.19709      301.40735      8401.4397      10110.331      165292.33     -240126.02     -64723.367    
     92000   39.590727      40.33697       123.26766      603.62558      305.35379      8511.3496      10191.332      165071.58     -240129.03     -64866.119    
     92500   39.590727      40.33697       123.26766      397.89262      298.69692      8325.9071      9910.9323      165534.44     -240117.12     -64671.754    
     93000   39.590727      40.33697       123.26766      337.04654      302.30406      8426.3555      9894.1424      165476.44     -240117.78     -64747.202    
     93500   39.590727      40.33697       123.26766      722.87534      298.6667       8324.9025      10168.566      165375.09     -240123.9      -64580.252    
     94000   39.590727      40.33697       123.26766      475.33313      295.60737      8240.1351      9970.7699      165515.73     -240124.73     -64638.228    
     94500   39.590727      40.33697       123.26766      424.05233      296.0881       8253.0389      9921.2691      165526.03     -240124.2      -64676.898    
     95000   39.590727      40.33697       123.26766      229.02113      299.43662      8346.5985      9770.4473      165709.91     -240126.78     -64646.425    
     95500   39.590727      40.33697       123.26766      459.1216       297.42584      8290.5529      9940.2793      165583.48     -240123.65     -64599.896    
     96000   39.590727      40.33697       123.26766      444.03724      298.225        8312.5942      10011.978      165359.32     -240123.43     -64752.135    
     96500   39.590727      40.33697       123.26766      414.83803      297.43644      8290.9925      9982.9975      165471.15     -240120.04     -64665.897    
     97000   39.590727      40.33697       123.26766      624.58772      303.11504      8449.0614      10220.84       165051.28     -240121.13     -64849.008    
     97500   39.590727      40.33697       123.26766      320.44269      301.28435      8398.3314      9844.0268      165625.95     -240128.03     -64658.046    
     98000   39.590727      40.33697       123.26766      351.96904      298.96526      8333.2369      9959.3819      165406.4      -240121.36     -64755.575    
     98500   39.590727      40.33697       123.26766      350.99885      297.1424       8282.6638      9894.1482      165617.09     -240123.63     -64612.397    
     99000   39.590727      40.33697       123.26766      360.15713      299.37423      8345.083       9966.0552      165409.24     -240127.9      -64752.599    
     99500   39.590727      40.33697       123.26766      278.72422      302.86053      8441.8107      9831.3966      165678.67     -240111.69     -64601.627    
    100000   39.590727      40.33697       123.26766      203.89588      299.39881      8345.3902      9763.265       165791.28     -240119.83     -64565.282    
    100500   39.590727      40.33697       123.26766      272.80818      302.44641      8430.4754      9896.9778      165482.66     -240124.59     -64744.953    
    101000   39.590727      40.33697       123.26766      567.57448      297.77286      8300.0663      10127.579      165331.18     -240127.72     -64668.953    
    101500   39.590727      40.33697       123.26766      292.95223      295.05279      8224.2051      9890.6247      165586.57     -240115.47     -64638.281    
    102000   39.590727      40.33697       123.26766      281.12982      303.35504      8455.6512      9920.7857      165519.35     -240120.5      -64680.365    
    102500   39.590727      40.33697       123.26766      459.40661      298.15505      8311.0217      9991.0638      165652        -240122.5      -64479.433    
    103000   39.590727      40.33697       123.26766      308.15801      302.29042      8425.9093      9925.5323      165579.79     -240129.1      -64623.771    
    103500   39.590727      40.33697       123.26766      350.2529       299.18924      8339.8477      9925.2472      165528.78     -240124.97     -64670.947    
    104000   39.590727      40.33697       123.26766      737.76855      298.38905      8317.8133      10407.309      164803.45     -240128.56     -64917.797    
    104500   39.590727      40.33697       123.26766      584.01862      299.16252      8338.7276      10172.072      165196.4      -240114.78     -64746.309    
    105000   39.590727      40.33697       123.26766      326.24859      304.76887      8495.0162      9880.6028      165484.72     -240110.24     -64744.916    
    105500   39.590727      40.33697       123.26766      326.15893      294.5781       8211.1963      9969.2971      165301.26     -240116.94     -64846.379    
    106000   39.590727      40.33697       123.26766      442.5642       299.93866      8361.4871      9927.3417      165586.34     -240122.1      -64608.424    
    106500   39.590727      40.33697       123.26766      304.37025      298.76534      8327.6725      9879.3252      165533.69     -240119.08     -64706.058    
    107000   39.590727      40.33697       123.26766      498.79114      297.61146      8295.7409      10029.753      165385.64     -240115.02     -64699.62     
    107500   39.590727      40.33697       123.26766      499.62295      303.80897      8468.6319      10044.496      165381.25     -240120.02     -64694.277    
    108000   39.590727      40.33697       123.26766      660.3721       298.35528      8316.773       10202.808      165146.49     -240128.61     -64779.307    
    108500   39.590727      40.33697       123.26766      475.94749      302.17876      8422.8014      10033.448      165442.88     -240126.52     -64650.19     
    109000   39.590727      40.33697       123.26766      331.68927      296.31532      8259.8747      9957.2609      165394.85     -240124.13     -64772.025    
    109500   39.590727      40.33697       123.26766      494.43191      304.00476      8473.9656      10080.885      165362.58     -240117.22     -64673.759    
    110000   39.590727      40.33697       123.26766      319.70259      299.97157      8361.3309      9844.6258      165802.4      -240112.77     -64465.749    
    110500   39.590727      40.33697       123.26766      322.04408      298.61952      8323.6609      9858.4713      165807.31     -240126.55     -64460.767    
    111000   39.590727      40.33697       123.26766      422.02365      304.03638      8474.5807      10032.999      165435.78     -240119.14     -64650.362    
    111500   39.590727      40.33697       123.26766      250.70017      296.95363      8277.1727      9890.185       165510.3      -240122.5      -64722.022    
    112000   39.590727      40.33697       123.26766      434.45554      298.87249      8330.8976      9991.7029      165560.27     -240109.7      -64557.727    
    112500   39.590727      40.33697       123.26766      363.45809      300.21405      8368.0603      9975.8662      165415.76     -240116.32     -64724.694    
    113000   39.590727      40.33697       123.26766      328.40366      297.31676      8287.9693      9885.8272      165457.42     -240115.03     -64771.789    
    113500   39.590727      40.33697       123.26766      525.0072       296.87371      8275.282       9964.3631      165717.23     -240128.32     -64446.736    
    114000   39.590727      40.33697       123.26766      450.18137      301.78904      8411.9591      9904.863       165709.85     -240112.49     -64497.778    
    114500   39.590727      40.33697       123.26766      425.62039      304.94467      8500.2632      9879.828       165784.98     -240115.57     -64450.757    
    115000   39.590727      40.33697       123.26766      448.15924      298.10901      8309.3704      9979.9836      165605.59     -240125.12     -64539.55     
    115500   39.590727      40.33697       123.26766      524.26204      298.62703      8324.5008      9938.5536      165651.45     -240126.76     -64536.764    
    116000   39.590727      40.33697       123.26766      591.69157      302.46395      8430.7669      10043.515      165332.07     -240129.08     -64753.496    
    116500   39.590727      40.33697       123.26766      428.66748      301.29448      8398.1647      9857.7873      165547.13     -240129.19     -64724.272    
    117000   39.590727      40.33697       123.26766      407.48946      299.48445      8347.7029      9868.1538      165614.27     -240118.55     -64636.127    
    117500   39.590727      40.33697       123.26766      373.59835      302.91326      8443.2813      9887.8886      165499.33     -240127.26     -64740.035    
    118000   39.590727      40.33697       123.26766      554.7719       296.19538      8256.0278      10018.485      165460.11     -240117.22     -64638.617    
    118500   39.590727      40.33697       123.26766      255.72916      299.12661      8337.7572      9773.0897      165634.32     -240115.66     -64708.247    
    119000   39.590727      40.33697       123.26766      573.30309      297.87877      8303.0669      10031.292      165397.12     -240126.91     -64698.492    
    119500   39.590727      40.33697       123.26766      663.71856      300.219        8368.2007      10130.248      165254.78     -240135.66     -64750.633    
    120000   39.590727      40.33697       123.26766      507.70115      300.36356      8373.5228      9988.9786      165513.44     -240120.24     -64617.819    
    120500   39.590727      40.33697       123.26766      637.09133      296.50842      8264.9332      10147.123      165175.61     -240131.81     -64809.085    
    121000   39.590727      40.33697       123.26766      329.34103      296.30649      8259.1209      9829.8238      165650.49     -240129.16     -64648.849    
    121500   39.590727      40.33697       123.26766      364.35602      296.50068      8264.5708      9884.6175      165605.24     -240110.63     -64620.771    
    122000   39.590727      40.33697       123.26766      285.4518       292.36059      8149.1333      9791.6244      165702.84     -240122.52     -64628.059    
    122500   39.590727      40.33697       123.26766      464.08206      302.83108      8441.1234      9813.6579      165820.46     -240129.72     -64495.601    
    123000   39.590727      40.33697       123.26766      445.38944      299.60064      8351.1751      9922.6407      165619.62     -240113.22     -64570.954    
    123500   39.590727      40.33697       123.26766      379.07124      300.229        8369.3638      9914.2931      165564.04     -240125.3      -64646.96     
    124000   39.590727      40.33697       123.26766      600.1417       303.41729      8457.9858      10098.358      165377.48     -240121.63     -64645.795    
    124500   39.590727      40.33697       123.26766      342.29289      299.63225      8351.9041      9858.756       165658.02     -240117.23     -64600.453    
    125000   39.590727      40.33697       123.26766      90.353974      297.8784       8304.091       9755.562       165479.19     -240122.7      -64887.949    
    125500   39.590727      40.33697       123.26766      143.3499       301.65382      8408.1881      9806.2307      165362.18     -240127.94     -64959.534    
    126000   39.590727      40.33697       123.26766      225.7915       298.57516      8323.6503      9820.4753      165681.31     -240120.11     -64618.331    
    126500   39.590727      40.33697       123.26766      295.26554      299.87594      8358.6831      9872.4215      165775.48     -240114.46     -64466.563    
    127000   39.590727      40.33697       123.26766      360.71232      299.36118      8344.8512      9940.9005      165571.9      -240110.66     -64597.86     
    127500   39.590727      40.33697       123.26766      460.28197      294.28089      8203.1209      9944.4947      165687.1      -240121.12     -64489.533    
    128000   39.590727      40.33697       123.26766      536.61607      302.26441      8425.3572      10059.541      165451.44     -240119.36     -64608.373    
    128500   39.590727      40.33697       123.26766      278.78139      302.09653      8420.5247      9757.2895      165838.87     -240124.79     -64528.634    
    129000   39.590727      40.33697       123.26766      194.91634      300.31663      8371.1031      9828.6102      165572.85     -240128.87     -64727.405    
    129500   39.590727      40.33697       123.26766      390.43248      302.84139      8441.2985      10002.76       165479.35     -240120.7      -64638.585    
    130000   39.590727      40.33697       123.26766      362.06846      298.86778      8330.531       9919.7401      165613.56     -240129.12     -64595.814    
    130500   39.590727      40.33697       123.26766      308.27497      298.55352      8321.7621      9950.5823      165382.09     -240135.15     -64802.477    
    131000   39.590727      40.33697       123.26766      488.21443      299.36414      8344.6852      10125.035      165123.94     -240119.54     -64870.559    
    131500   39.590727      40.33697       123.26766      317.39901      300.1155       8365.6288      9833.3093      165634.6      -240123.29     -64655.379    
    132000   39.590727      40.33697       123.26766      300.99582      300.71126      8381.97        9875.3722      165730.5      -240121.92     -64516.049    
    132500   39.590727      40.33697       123.26766      229.0934       297.80682      8301.0915      9925.5645      165458.35     -240118.76     -64734.838    
    133000   39.590727      40.33697       123.26766      411.85158      300.02761      8362.9035      9999.1836      165498.97     -240119.87     -64621.722    
    133500   39.590727      40.33697       123.26766      352.05297      302.59545      8434.8488      9982.4471      165268.41     -240114.92     -64864.061    
    134000   39.590727      40.33697       123.26766      519.19432      299.68422      8353.4237      10050.051      165183.84     -240127.9      -64894.011    
    134500   39.590727      40.33697       123.26766      240.96753      304.85831      8497.5057      9875.5804      165401.17     -240130.33     -64853.583    
    135000   39.590727      40.33697       123.26766      452.38932      302.12023      8421.206       9932.1199      165559.12     -240124.32     -64633.082    
    135500   39.590727      40.33697       123.26766      538.74566      299.94302      8360.613       10101.432      165176.51     -240123.47     -64845.522    
    136000   39.590727      40.33697       123.26766      585.00696      301.40725      8401.2916      10148.882      165175.73     -240126.75     -64802.131    
    136500   39.590727      40.33697       123.26766      509.57605      301.8324       8413.4436      10026.976      165398.49     -240124.48     -64699.007    
    137000   39.590727      40.33697       123.26766      481.90533      299.74619      8355.9763      10019.817      165481.26     -240117.79     -64616.719    
    137500   39.590727      40.33697       123.26766      372.01244      298.67566      8325.5467      9983.5629      165406        -240127.8      -64738.236    
    138000   39.590727      40.33697       123.26766      137.36687      298.42848      8318.3932      9693.3757      165843.61     -240123.89     -64586.899    
    138500   39.590727      40.33697       123.26766      258.32556      295.1652       8227.3375      9880.278       165436.41     -240120.91     -64804.218    
    139000   39.590727      40.33697       123.26766      63.822227      295.69258      8242.6045      9746.3742      165648.47     -240117.09     -64722.249    
    139500   39.590727      40.33697       123.26766      271.61085      296.49882      8264.6247      9909.545       165472.61     -240126.25     -64744.092    
    140000   39.590727      40.33697       123.26766      560.38763      297.6333       8296.1247      10209.58       165104.9      -240116.06     -64801.584    
    140500   39.590727      40.33697       123.26766      305.04977      301.11513      8393.6496      9910.6705      165540        -240118.68     -64668.008    
    141000   39.590727      40.33697       123.26766      335.20971      299.45985      8347.7985      9891.822       165633.17     -240120.18     -64595.189    
    141500   39.590727      40.33697       123.26766      299.01813      297.96498      8306.6867      9888.8604      165477.37     -240127.53     -64761.297    
    142000   39.590727      40.33697       123.26766      78.947535      295.39094      8234.0926      9751.067       165525.64     -240126.62     -64849.913    
    142500   39.590727      40.33697       123.26766      216.63846      296.29317      8258.7655      9887.2805      165383.84     -240127.68     -64856.557    
    143000   39.590727      40.33697       123.26766      381.1143       301.28734      8397.9531      9953.0375      165538.63     -240108.19     -64616.521    
    143500   39.590727      40.33697       123.26766      352.40663      303.57788      8461.9024      9963.0729      165466.97     -240132.18     -64702.138    
    144000   39.590727      40.33697       123.26766      401.42413      295.55514      8239.9836      9990.5773      165407.03     -240121.17     -64723.566    
    144500   39.590727      40.33697       123.26766      489.44771      299.45027      8346.841       10056.109      165328.09     -240127.3      -64743.097    
    145000   39.590727      40.33697       123.26766      373.40029      299.8426       8358.385       9834.0062      165638.95     -240126.21     -64653.252    
    145500   39.590727      40.33697       123.26766      299.15627      298.67077      8325.1945      9863.22        165578.85     -240127.06     -64684.997    
    146000   39.590727      40.33697       123.26766      405.6501       300.77008      8384.0029      9959.2233      165472.39     -240129.94     -64698.326    
    146500   39.590727      40.33697       123.26766      737.99995      305.05118      8502.8698      10283.951      165008.32     -240120.53     -64828.266    
    147000   39.590727      40.33697       123.26766      465.48102      299.0754       8336.9124      10090.96       165218.21     -240118.32     -64809.149    
    147500   39.590727      40.33697       123.26766      354.03493      301.66466      8408.9032      9922.9655      165406.96     -240103.86     -64773.936    
    148000   39.590727      40.33697       123.26766      373.71182      297.76307      8299.7157      10048.538      165117.99     -240123.11     -64956.588    
    148500   39.590727      40.33697       123.26766      338.82354      301.83849      8413.3164      9958.9662      165348.72     -240114.93     -64807.239    
    149000   39.590727      40.33697       123.26766      339.75301      297.32701      8287.5943      10005.872      165291.55     -240122.36     -64824.937    
    149500   39.590727      40.33697       123.26766      340.6372       295.1504       8227.49        9929.9363      165359.71     -240123.27     -64833.627    
    150000   39.590727      40.33697       123.26766      470.85584      304.16417      8478.146       10031.273      165275.84     -240126.49     -64819.382    
    150500   39.590727      40.33697       123.26766      436.28902      300.34406      8372.0059      9992.4217      165457.68     -240124.01     -64673.905    
    151000   39.590727      40.33697       123.26766      308.9891       298.72748      8326.6083      9971.8604      165281.85     -240117.43     -64863.72     
    151500   39.590727      40.33697       123.26766      403.27098      301.29281      8398.1088      10008.992      165369.04     -240119.82     -64741.785    
    152000   39.590727      40.33697       123.26766      412.33262      300.36482      8372.3177      9943.0356      165602.12     -240114.77     -64569.613    
    152500   39.590727      40.33697       123.26766      688.05246      298.50335      8320.3713      10243.231      165273.67     -240121.91     -64605.011    
    153000   39.590727      40.33697       123.26766      350.49909      295.70656      8242.4162      9905.9725      165614.35     -240117.4      -64597.082    
    153500   39.590727      40.33697       123.26766      558.75798      298.66213      8324.8053      10025.706      165646.64     -240128.15     -64455.81     
    154000   39.590727      40.33697       123.26766      351.73954      298.3533       8316.5495      9947.0089      165585.31     -240118.97     -64586.653    
    154500   39.590727      40.33697       123.26766      512.25407      302.44011      8430.1628      10095.785      165355.15     -240116.08     -64665.146    
    155000   39.590727      40.33697       123.26766      281.35046      300.11082      8365.5134      9900.4887      165570.85     -240127.96     -64656.618    
    155500   39.590727      40.33697       123.26766      226.48944      297.23929      8285.1356      9889.4766      165505.69     -240134.97     -64739.801    
    156000   39.590727      40.33697       123.26766      322.22849      296.7869       8272.7175      9893.5582      165565.92     -240124.65     -64665.181    
    156500   39.590727      40.33697       123.26766      166.48322      299.18651      8339.6278      9795.9113      165562.63     -240130.72     -64772.18     
    157000   39.590727      40.33697       123.26766      241.12569      299.8396       8357.6201      9815.6099      165621.17     -240125.98     -64689.199    
    157500   39.590727      40.33697       123.26766      248.25005      297.43328      8290.9636      9963.6648      165446.68     -240123.72     -64713.375    
    158000   39.590727      40.33697       123.26766      239.46308      296.87808      8275.3783      9818.0757      165727.08     -240117.08     -64571.922    
    158500   39.590727      40.33697       123.26766      432.02483      301.40079      8401.4783      10093.729      165274.71     -240118.53     -64750.091    
    159000   39.590727      40.33697       123.26766      511.15863      302.59519      8438.731       10041.744      165435.17     -240125.59     -64648.685    
    159500   39.590727      40.33697       123.26766      480.72382      297.35798      8288.4519      10014.563      165296.68     -240112.8      -64801.556    
    160000   39.590727      40.33697       123.26766      568.22171      309.2143       8619.0347      10055.356      165330.29     -240115.04     -64729.395    
    160500   39.590727      40.33697       123.26766      614.14929      296.51616      8266.5762      10212.497      164980.78     -240132.3      -64939.023    
    161000   39.590727      40.33697       123.26766      627.85033      299.97022      8361.3793      10156.457      165205.19     -240116.89     -64755.241    
    161500   39.590727      40.33697       123.26766      711.64012      299.10835      8337.59        10275.293      164944.01     -240118.28     -64898.98     
    162000   39.590727      40.33697       123.26766      772.6913       295.92569      8248.5417      10246.57       165024.43     -240118.9      -64847.899    
    162500   39.590727      40.33697       123.26766      562.23062      299.02787      8334.9698      10088.146      165126.03     -240115.98     -64901.803    
    163000   39.590727      40.33697       123.26766      625.1729       298.23854      8314.1197      10089.733      165338.37     -240131.77     -64703.67     
    163500   39.590727      40.33697       123.26766      488.73726      299.16715      8339.3549      9982.8815      165378.24     -240128.86     -64767.74     
    164000   39.590727      40.33697       123.26766      666.26049      301.9163       8416.2461      10122.243      165345.44     -240130.9      -64663.214    
    164500   39.590727      40.33697       123.26766      803.91121      299.91442      8360.0033      10303.37       165082.96     -240122.48     -64736.146    
    165000   39.590727      40.33697       123.26766      461.72315      300.49273      8377.2731      10121.959      165147.9      -240125.95     -64856.086    
    165500   39.590727      40.33697       123.26766      818.56679      298.83243      8329.6206      10377.38       164976.16     -240138.51     -64784.966    
    166000   39.590727      40.33697       123.26766      660.51335      298.41602      8318.4685      10208.977      165246.34     -240125.93     -64670.605    
    166500   39.590727      40.33697       123.26766      484.05624      300.08754      8365.5158      10044.372      165389.96     -240115.09     -64680.754    
    167000   39.590727      40.33697       123.26766      231.95789      296.41862      8262.4084      9951.6763      165216.71     -240121        -64952.613    
    167500   39.590727      40.33697       123.26766      95.4359        301.13193      8393.6243      9776.3832      165662.79     -240112.17     -64672.993    
    168000   39.590727      40.33697       123.26766      321.65916      301.08718      8392.5302      9959.8047      165437.07     -240126.01     -64729.128    
    168500   39.590727      40.33697       123.26766      321.29735      298.3322       8316.1135      9963.968       165397.67     -240121.61     -64759.97     
    169000   39.590727      40.33697       123.26766      463.98438      301.89316      8416.3237      10063.621      165343.08     -240119.38     -64712.68     
    169500   39.590727      40.33697       123.26766      336.11203      299.86232      8358.2456      9996.945       165442.27     -240127.62     -64688.407    
    170000   39.590727      40.33697       123.26766     -5.3025991      304.39577      8485.3293      9677.4269      165785.76     -240116.79     -64653.604    
    170500   39.590727      40.33697       123.26766      280.80363      300.07763      8364.5109      9849.8352      165869.05     -240113.29     -64394.403    
    171000   39.590727      40.33697       123.26766      304.99798      301.15709      8394.3484      9913.1997      165603.5      -240120.41     -64603.71     
    171500   39.590727      40.33697       123.26766      366.69443      300.96675      8389.4667      9921.3084      165674.16     -240129.13     -64533.664    
    172000   39.590727      40.33697       123.26766      154.61925      302.68909      8437.1108      9815.0256      165585.08     -240125.21     -64725.099    
    172500   39.590727      40.33697       123.26766      193.36283      295.79613      8244.8896      9814.8605      165745.66     -240126.14     -64565.62     
    173000   39.590727      40.33697       123.26766      579.75646      300.75375      8383.4215      10203.407      165191.08     -240112.49     -64718.005    
    173500   39.590727      40.33697       123.26766      185.41398      298.63345      8324.2729      9948.6623      165355.27     -240119.44     -64815.51     
    174000   39.590727      40.33697       123.26766      386.42095      303.93898      8471.9848      10040.635      165443.92     -240122.39     -64637.832    
    174500   39.590727      40.33697       123.26766      310.51436      303.51254      8460.0807      9919.7983      165421.54     -240124.26     -64782.922    
    175000   39.590727      40.33697       123.26766      499.92015      298.26457      8314.7986      10118.177      165182.62     -240129.09     -64828.295    
    175500   39.590727      40.33697       123.26766      205.07506      300.22607      8368.8913      9837.9872      165419.12     -240120.89     -64863.789    
    176000   39.590727      40.33697       123.26766      217.73812      298.96981      8334.036       9740.1085      165734.91     -240120.41     -64645.388    
    176500   39.590727      40.33697       123.26766      673.40445      296.28164      8258.8203      10213.788      165174.96     -240126.97     -64738.223    
    177000   39.590727      40.33697       123.26766      432.57586      301.85154      8413.7518      9997.0918      165498.74     -240116.41     -64620.577    
    177500   39.590727      40.33697       123.26766      354.25793      299.21637      8341.0319      10038.978      165212.94     -240107.25     -64855.331    
    178000   39.590727      40.33697       123.26766      451.23274      297.97358      8305.9521      9996.1282      165365.92     -240118.29     -64756.241    
    178500   39.590727      40.33697       123.26766      748.27738      304.57348      8489.9126      10213.666      165115.2      -240121.69     -64792.828    
    179000   39.590727      40.33697       123.26766      662.41141      302.03568      8419.0275      10153.972      165162.67     -240121.07     -64804.422    
    179500   39.590727      40.33697       123.26766      700.7487       296.86651      8274.735       10187.389      165208.91     -240123.21     -64726.909    
    180000   39.590727      40.33697       123.26766      479.92839      300.53483      8377.0911      10021.395      165325.22     -240122.89     -64776.267    
    180500   39.590727      40.33697       123.26766      304.11115      301.15978      8394.6114      9823.9808      165584.25     -240120.32     -64712.082    
    181000   39.590727      40.33697       123.26766      644.53665      299.97189      8361.6405      10167.93       165168.07     -240111.21     -64775.211    
    181500   39.590727      40.33697       123.26766      302.34824      300.11848      8365.9459      9877.9419      165519.64     -240137.31     -64739.724    
    182000   39.590727      40.33697       123.26766      588.77126      299.90469      8359.9227      10134.261      165323.8      -240113.44     -64655.381    
    182500   39.590727      40.33697       123.26766      279.4147       297.72177      8298.6912      9854.5158      165568.17     -240123.6      -64700.913    
    183000   39.590727      40.33697       123.26766      501.28074      299.67073      8352.8921      10090.802      165171.21     -240132.9      -64870.889    
    183500   39.590727      40.33697       123.26766      448.32939      300.67227      8381.6975      10046.913      165304.54     -240123.06     -64771.61     
    184000   39.590727      40.33697       123.26766      424.15685      299.89789      8359.2341      10036.037      165307.87     -240112.99     -64769.076    
    184500   39.590727      40.33697       123.26766      402.99314      300.0287       8363.0503      10050.86       165306.85     -240116.52     -64758.808    
    185000   39.590727      40.33697       123.26766      376.61096      300.10295      8365.2693      10009.273      165282.38     -240119.78     -64828.123    
    185500   39.590727      40.33697       123.26766      301.14609      296.61447      8267.7907      9968.1942      165439.71     -240110        -64702.096    
    186000   39.590727      40.33697       123.26766      607.56124      297.66095      8297.205       10212.615      165250.18     -240108.78     -64645.986    
    186500   39.590727      40.33697       123.26766      316.72354      301.82786      8413.0952      10003.706      165190.72     -240116.49     -64922.066    
    187000   39.590727      40.33697       123.26766      291.9057       300.82627      8386.0512      9924.934       165424.28     -240124.5      -64775.282    
    187500   39.590727      40.33697       123.26766      454.52169      298.47421      8319.571       10095.491      165180.09     -240116.26     -64840.683    
    188000   39.590727      40.33697       123.26766      16.351925      296.55702      8266.1414      9692.3667      165746.36     -240109.5      -64670.771    
    188500   39.590727      40.33697       123.26766      274.44794      300.90646      8387.3979      9926.6545      165478.1      -240122.46     -64717.71     
    189000   39.590727      40.33697       123.26766      231.22488      300.37775      8373.0161      9807.6994      165808.71     -240121.95     -64505.541    
    189500   39.590727      40.33697       123.26766      298.25409      294.95723      8221.6519      10015.95       165409.77     -240117.32     -64691.599    
    190000   39.590727      40.33697       123.26766      182.02534      298.9455       8332.7828      9880.2014      165440.76     -240129.79     -64808.828    
    190500   39.590727      40.33697       123.26766      121.64384      301.63706      8407.6982      9802.2904      165579.9      -240125.69     -64743.499    
    191000   39.590727      40.33697       123.26766      403.30303      297.47265      8293.8582      10051.083      165303.31     -240124.45     -64770.051    
    191500   39.590727      40.33697       123.26766      177.30477      295.56749      8238.5167      9819.1097      165654.61     -240122.63     -64648.911    
    192000   39.590727      40.33697       123.26766      262.18538      298.87915      8331.0898      9895.2139      165575.44     -240117.11     -64646.457    
    192500   39.590727      40.33697       123.26766      449.71194      298.71829      8326.6942      10030.352      165427.02     -240120.44     -64663.071    
    193000   39.590727      40.33697       123.26766      244.55862      300.44271      8374.4422      9838.7577      165616.64     -240127.07     -64671.675    
    193500   39.590727      40.33697       123.26766      84.595039      297.40225      8290.1675      9778.0284      165540.45     -240124.67     -64806.19     
    194000   39.590727      40.33697       123.26766      455.35344      301.20305      8395.6282      9957.4719      165490.5      -240125.35     -64677.374    
    194500   39.590727      40.33697       123.26766      458.19544      299.63821      8352.0124      9937.3988      165560.38     -240120.06     -64622.278    
    195000   39.590727      40.33697       123.26766      466.4828       299.81969      8358.4692      9966.5615      165491.82     -240123.33     -64664.949    
    195500   39.590727      40.33697       123.26766      326.67873      299.53845      8349.9801      9899.4247      165389.52     -240125.66     -64836.718    
    196000   39.590727      40.33697       123.26766      458.90236      300.8308       8385.5109      10037.3        165273.11     -240122.09     -64811.674    
    196500   39.590727      40.33697       123.26766      891.08122      297.21179      8284.6105      10275.467      165188.13     -240117.91     -64654.315    
    197000   39.590727      40.33697       123.26766      536.1923       301.96974      8417.0819      9987.5224      165431.11     -240134.42     -64715.789    
    197500   39.590727      40.33697       123.26766      472.68049      303.51881      8461.3741      9955.5543      165433.57     -240118.75     -64729.627    
    198000   39.590727      40.33697       123.26766      444.99149      297.4645       8291.4499      10001.421      165281.47     -240124.44     -64841.557    
    198500   39.590727      40.33697       123.26766      445.87424      300.00385      8362.5649      9993.4602      165284.88     -240123.96     -64845.624    
    199000   39.590727      40.33697       123.26766      381.49335      296.4438       8263.0172      9946.3565      165388.02     -240120.95     -64786.572    
    199500   39.590727      40.33697       123.26766      407.45298      299.5261       8348.8609      9982.3658      165307.46     -240117.84     -64828.019    
    200000   39.590727      40.33697       123.26766      480.82447      299.06266      8336.0537      9963.1724      165431.39     -240122.7      -64728.135    
    200500   39.590727      40.33697       123.26766      548.4994       302.77312      8439.5528      10082.164      165313.46     -240126.66     -64731.035    
    201000   39.590727      40.33697       123.26766      435.97784      302.81646      8440.8279      9921.7196      165527.38     -240126.14     -64677.034    
    201500   39.590727      40.33697       123.26766      313.50994      302.61654      8435.5634      9868.2525      165534.41     -240120.97     -64718.314    
    202000   39.590727      40.33697       123.26766      470.98043      299.09651      8337.0162      9960.4175      165434.95     -240120.27     -64724.903    
    202500   39.590727      40.33697       123.26766      531.90101      299.25747      8342.706       10047.301      165386.91     -240126.45     -64692.234    
    203000   39.590727      40.33697       123.26766      73.212112      303.08822      8448.4033      9690.2666      165656.71     -240127.57     -64780.597    
    203500   39.590727      40.33697       123.26766      254.99744      295.11801      8226.009       9805.8544      165790.46     -240130.94     -64534.623    
    204000   39.590727      40.33697       123.26766      388.73332      295.94963      8249.169       9978.0815      165454.73     -240114.16     -64681.355    
    204500   39.590727      40.33697       123.26766      275.80198      302.65067      8435.9547      9923.8507      165459.07     -240125.32     -64742.404    
    205000   39.590727      40.33697       123.26766      191.47406      302.1814       8423.2926      9805.6448      165671.06     -240128.26     -64651.547    
    205500   39.590727      40.33697       123.26766      136.64496      299.10455      8337.3664      9759.3866      165623.23     -240135.23     -64752.608    
    206000   39.590727      40.33697       123.26766      257.36941      292.66411      8157.9258      9886.9796      165629.37     -240130.72     -64614.37     
    206500   39.590727      40.33697       123.26766      263.39392      304.0699       8475.6802      9757.6782      165836.93     -240118.77     -64524.166    
    207000   39.590727      40.33697       123.26766      310.96527      303.36769      8457.3213      9861.987       165704.32     -240129.27     -64562.962    
    207500   39.590727      40.33697       123.26766      220.43117      301.42938      8401.9511      9834.5191      165556.05     -240121.89     -64731.324    
    208000   39.590727      40.33697       123.26766      186.06649      296.98182      8277.9473      9789.7029      165756.62     -240121.72     -64575.396    
    208500   39.590727      40.33697       123.26766      300.39652      299.61763      8352.1375      9906.5087      165500.39     -240128.6      -64721.698    
    209000   39.590727      40.33697       123.26766      245.32936      299.43966      8346.7991      9843.2508      165637.72     -240123.78     -64642.808    
    209500   39.590727      40.33697       123.26766      576.06086      303.55074      8462.1721      10130.79       165255.05     -240138.77     -64752.929    
    210000   39.590727      40.33697       123.26766      372.51683      303.31452      8454.5061      9824.8629      165725.82     -240127.85     -64577.17     
    210500   39.590727      40.33697       123.26766      208.17865      300.9146       8387.6327      9870.5696      165394.81     -240126.04     -64860.662    
    211000   39.590727      40.33697       123.26766      315.65865      299.46771      8347.2469      9866.1368      165531.82     -240129.96     -64732.006    
    211500   39.590727      40.33697       123.26766      443.19322      299.52449      8349.1875      9972.4157      165515.46     -240119.88     -64632.003    
    212000   39.590727      40.33697       123.26766      443.94034      301.15413      8395.5857      10011.736      165381.28     -240127.74     -64734.727    
    212500   39.590727      40.33697       123.26766      319.99325      297.76075      8299.652       9830.4551      165527.91     -240119.33     -64760.964    
    213000   39.590727      40.33697       123.26766      538.46703      301.91959      8415.7133      10061.637      165433.81     -240120.55     -64625.101    
    213500   39.590727      40.33697       123.26766      482.61015      300.38033      8372.6698      10027.815      165491.3      -240112.71     -64593.599    
    214000   39.590727      40.33697       123.26766      705.2439       301.02338      8390.6061      10271.316      165077.84     -240123.76     -64774.602    
    214500   39.590727      40.33697       123.26766      499.55367      298.73919      8327.3295      10090.591      165353.74     -240113.69     -64669.367    
    215000   39.590727      40.33697       123.26766      787.37172      298.38509      8317.3514      10127.306      165635.74     -240118.87     -64355.824    
    215500   39.590727      40.33697       123.26766      86.537422      303.22386      8451.9275      9694.4706      165689.18     -240126.01     -64742.357    
    216000   39.590727      40.33697       123.26766      360.34146      303.69665      8465.3859      9891.1257      165606.14     -240118.2      -64620.939    
    216500   39.590727      40.33697       123.26766      569.36677      302.14148      8421.9998      10117.208      165244.96     -240123.21     -64761.047    
    217000   39.590727      40.33697       123.26766      527.9808       300.63709      8379.9965      10092.276      165221.19     -240122.61     -64809.15     
    217500   39.590727      40.33697       123.26766      358.70453      298.64643      8324.8475      9888.8887      165536.76     -240128.14     -64702.485    
    218000   39.590727      40.33697       123.26766      181.99257      296.65527      8268.8515      9749.5688      165727.1      -240128.98     -64652.31     
    218500   39.590727      40.33697       123.26766      308.1739       301.14366      8394.0059      9888.8997      165573.78     -240119.57     -64656.888    
    219000   39.590727      40.33697       123.26766      353.30197      301.01348      8390.4425      9920.4338      165539.38     -240116.69     -64656.87     
    219500   39.590727      40.33697       123.26766      379.96762      300.20394      8367.8108      9956.6083      165517.82     -240128.77     -64654.344    
    220000   39.590727      40.33697       123.26766      309.78815      297.70246      8298.0483      9872.6215      165595.42     -240131.96     -64663.919    
    220500   39.590727      40.33697       123.26766      273.90289      298.80469      8329.1304      9872.1014      165540.48     -240123.4      -64710.817    
    221000   39.590727      40.33697       123.26766      411.2628       298.05286      8309.2466      10058.797      165184.11     -240140.61     -64897.7      
    221500   39.590727      40.33697       123.26766      346.38021      305.80821      8524.2251      9967.2857      165260.63     -240131.4      -64903.489    
    222000   39.590727      40.33697       123.26766      212.41313      303.18121      8450.7928      9791.3163      165505.4      -240129.13     -64832.414    
    222500   39.590727      40.33697       123.26766      524.55372      301.66219      8408.3987      9970.6481      165459.6      -240131.57     -64701.317    
    223000   39.590727      40.33697       123.26766      309.80981      304.12456      8477.6252      9773.6803      165615.57     -240118.49     -64729.244    
    223500   39.590727      40.33697       123.26766      340.24953      298.55651      8321.9537      9843.8336      165570.86     -240127.04     -64712.338    
    224000   39.590727      40.33697       123.26766      660.027        293.62529      8184.7663      10198.674      165183.98     -240119.25     -64736.594    
    224500   39.590727      40.33697       123.26766      399.73831      300.65696      8380.3806      10004.425      165259.86     -240126.31     -64862.018    
[...]
   2275000   39.590727      40.33697       123.26766      447.27339      301.85475      8414.9548      10046.625      165275.52     -240129.86     -64807.707    
   2275500   39.590727      40.33697       123.26766      314.47246      297.27176      8286.3869      9963.682       165281.46     -240120.66     -64875.517    
   2276000   39.590727      40.33697       123.26766      649.15005      301.68935      8409.5283      10180.93       165322.77     -240118.49     -64614.79     
   2276500   39.590727      40.33697       123.26766      499.09863      299.327        8345.2349      10033.771      165489.35     -240100.35     -64577.237    
   2277000   39.590727      40.33697       123.26766      364.6847       301.23798      8396.866       9842.4029      165801.52     -240126.48     -64482.562    
   2277500   39.590727      40.33697       123.26766      353.19013      302.11319      8421.2352      9831.6206      165736.46     -240123.7      -64555.618    
   2278000   39.590727      40.33697       123.26766      420.47274      300.87315      8386.7144      9946.1358      165518.24     -240118.77     -64654.393    
   2278500   39.590727      40.33697       123.26766      112.18166      294.96692      8221.808       9602.8271      166065.46     -240119.89     -64451.604    
   2279000   39.590727      40.33697       123.26766      227.07359      300.2345       8368.9457      9862.0517      165620.56     -240128.47     -64645.849    
   2279500   39.590727      40.33697       123.26766      497.10609      298.81585      8329.4424      9959.2536      165734.3      -240126.18     -64432.627    
   2280000   39.590727      40.33697       123.26766      408.06989      294.92568      8221.3952      9949.5669      165534.95     -240125.77     -64641.246    
   2280500   39.590727      40.33697       123.26766      694.23566      299.85716      8358.3091      10093.697      165488.69     -240113.38     -64530.991    
   2281000   39.590727      40.33697       123.26766      513.07771      301.32795      8399.1419      9987.1956      165482.94     -240131.2      -64661.068    
   2281500   39.590727      40.33697       123.26766      362.08223      295.26838      8230.371       9951.0882      165448.78     -240119.04     -64719.172    
   2282000   39.590727      40.33697       123.26766      440.28762      298.47354      8320.3772      9995.3704      165367.3      -240133.14     -64770.472    
   2282500   39.590727      40.33697       123.26766      765.61555      301.8358       8413.2841      10266.509      165193.44     -240110.07     -64650.122    
   2283000   39.590727      40.33697       123.26766      623.73934      300.10278      8365.0744      10176.801      165250.34     -240128.86     -64701.716    
   2283500   39.590727      40.33697       123.26766      333.08388      302.64285      8435.7342      9879.9294      165602.66     -240123.05     -64640.458    
   2284000   39.590727      40.33697       123.26766      567.38213      300.06745      8363.9495      10062.168      165531.78     -240115.02     -64521.073    
   2284500   39.590727      40.33697       123.26766      224.6539       298.03793      8307.8283      9787.4448      165595.06     -240124.46     -64741.949    
   2285000   39.590727      40.33697       123.26766      532.93291      301.9168       8415.5328      10021.316      165419.82     -240127.24     -64686.104    
   2285500   39.590727      40.33697       123.26766      411.42239      299.23752      8341.0283      9953.0549      165429.39     -240112.38     -64729.939    
   2286000   39.590727      40.33697       123.26766      334.68252      297.99799      8306.3456      9966.4202      165315.76     -240122.31     -64840.133    
   2286500   39.590727      40.33697       123.26766      526.54643      297.75573      8299.5108      10108.471      165125.59     -240116.14     -64882.081    
   2287000   39.590727      40.33697       123.26766      273.32306      302.02288      8420.4283      9881.1782      165450.99     -240123.18     -64791.007    
   2287500   39.590727      40.33697       123.26766      578.00731      299.00456      8334.3573      10166.794      165185.96     -240123.32     -64770.576    
   2288000   39.590727      40.33697       123.26766      287.67879      295.90125      8247.8294      9906.5592      165418.75     -240130.34     -64805.031    
   2288500   39.590727      40.33697       123.26766      581.50284      302.31428      8427.6263      10088.671      165403.71     -240123.6      -64631.224    
   2289000   39.590727      40.33697       123.26766      535.81527      296.32651      8259.7188      10061.754      165435.55     -240117.16     -64619.853    
   2289500   39.590727      40.33697       123.26766      531.88844      300.31349      8370.8111      10111.436      165251.33     -240125.44     -64762.682    
   2290000   39.590727      40.33697       123.26766      369.71677      299.61688      8351.5013      9987.1932      165299.93     -240113.79     -64826.668    
   2290500   39.590727      40.33697       123.26766      457.50928      297.55251      8293.8502      10000.862      165439.9      -240136.33     -64695.561    
   2291000   39.590727      40.33697       123.26766      299.87157      297.17583      8283.3614      9897.372       165672.56     -240123.61     -64553.669    
   2291500   39.590727      40.33697       123.26766      395.43731      302.3917       8428.7469      10031.456      165415.19     -240110.23     -64663.582    
   2292000   39.590727      40.33697       123.26766      300.00574      300.14587      8366.4911      9884.6688      165545.68     -240118.95     -64688.604    
   2292500   39.590727      40.33697       123.26766      377.1926       298.51429      8320.707       9959.6035      165484.19     -240129.05     -64685.253    
   2293000   39.590727      40.33697       123.26766      318.25798      300.24485      8368.9644      9881.1713      165587.09     -240132.72     -64664.459    
   2293500   39.590727      40.33697       123.26766      446.0989       297.76314      8299.7976      10060.383      165347.22     -240123.78     -64716.179    
   2294000   39.590727      40.33697       123.26766      222.99794      299.32816      8345.4155      9879.4665      165622.66     -240119.41     -64617.282    
   2294500   39.590727      40.33697       123.26766      314.15002      296.72524      8270.943       10052.073      165386        -240122.83     -64684.753    
   2295000   39.590727      40.33697       123.26766      92.741367      297.37958      8289.549       9776.4897      165736.02     -240115.08     -64602.57     
   2295500   39.590727      40.33697       123.26766      245.01976      300.94448      8388.5165      9855.8717      165744.36     -240122.82     -64522.583    
   2296000   39.590727      40.33697       123.26766      169.11714      300.20062      8368.1868      9850.6485      165562.36     -240117.18     -64704.168    
   2296500   39.590727      40.33697       123.26766      429.23493      301.63194      8407.5719      10015.056      165397.21     -240114.52     -64702.26     
   2297000   39.590727      40.33697       123.26766      374.25963      297.70564      8299.3671      9961.8301      165487.6      -240123.25     -64673.817    
   2297500   39.590727      40.33697       123.26766      285.08515      297.78208      8300.2656      10017.787      165252.35     -240115.16     -64845.025    
   2298000   39.590727      40.33697       123.26766     -6.9399952      301.11268      8393.1967      9662.67        165744.52     -240114.81     -64707.621    
   2298500   39.590727      40.33697       123.26766      355.04112      297.59841      8296.4216      9989.6481      165422.72     -240111.09     -64698.718    
   2299000   39.590727      40.33697       123.26766      557.99737      299.76642      8356.6283      10094.637      165499        -240113.04     -64519.404    
   2299500   39.590727      40.33697       123.26766      467.21452      301.6895       8409.5754      10125.275      165193.85     -240126.76     -64807.635    
   2300000   39.590727      40.33697       123.26766      248.07338      300.00528      8362.2188      9941.8642      165346.6      -240121.74     -64833.276    
   2300500   39.590727      40.33697       123.26766      362.46978      296.90069      8275.876       9938.4167      165417.07     -240114.23     -64758.737    
   2301000   39.590727      40.33697       123.26766      239.21065      301.23781      8396.6356      9842.2196      165496.39     -240127.45     -64788.837    
   2301500   39.590727      40.33697       123.26766      616.77545      301.43209      8402.0252      10182.701      165020.31     -240130.49     -64927.477    
   2302000   39.590727      40.33697       123.26766      534.56604      301.05325      8391.4723      9989.077       165401.39     -240114.82     -64724.35     
   2302500   39.590727      40.33697       123.26766      585.325        298.73842      8326.9464      10062.399      165363.22     -240116.45     -64690.834    
   2303000   39.590727      40.33697       123.26766      302.71575      302.85868      8441.8231      9946.9489      165234.23     -240126.23     -64945.052    
   2303500   39.590727      40.33697       123.26766      739.62657      300.30139      8370.9449      10303.714      165047.22     -240122.4      -64771.469    
   2304000   39.590727      40.33697       123.26766      382.42787      303.59004      8462.1579      9901.5546      165397.86     -240123.66     -64824.247    
   2304500   39.590727      40.33697       123.26766      761.986        301.33171      8399.1908      10270.009      165027.4      -240120.74     -64823.332    
   2305000   39.590727      40.33697       123.26766      482.4193       301.98472      8417.4311      9924.6246      165481.33     -240109.51     -64703.554    
   2305500   39.590727      40.33697       123.26766      365.91075      299.62414      8351.7159      9868.6268      165651.12     -240105.83     -64586.083    
   2306000   39.590727      40.33697       123.26766      584.22716      296.5321       8265.4899      10130.754      165213.99     -240119.29     -64774.543    
   2306500   39.590727      40.33697       123.26766      535.96399      295.87708      8248.6985      9978.964       165470.54     -240120.59     -64671.084    
   2307000   39.590727      40.33697       123.26766      371.85054      302.79191      8439.8959      9875.5163      165510.09     -240118.83     -64733.223    
   2307500   39.590727      40.33697       123.26766      656.03059      294.01357      8195.6683      10303.564      164836.31     -240119.66     -64979.784    
   2308000   39.590727      40.33697       123.26766      363.33519      300.22853      8368.7576      9986.051       165220.19     -240131.78     -64925.544    
   2308500   39.590727      40.33697       123.26766      334.37954      300.27279      8370.9012      9919.5845      165483.7      -240125.28     -64721.989    
   2309000   39.590727      40.33697       123.26766      177.77438      301.74226      8410.9371      9894.3349      165388.59     -240105.73     -64822.802    
   2309500   39.590727      40.33697       123.26766      329.22759      299.31334      8342.9404      9969.7273      165381.47     -240122.24     -64771.049    
   2310000   39.590727      40.33697       123.26766      242.07289      299.08159      8336.5539      9848.8185      165483.56     -240123.17     -64790.788    
   2310500   39.590727      40.33697       123.26766      387.81096      298.94935      8332.781       9961.9188      165468.84     -240124.71     -64693.954    
   2311000   39.590727      40.33697       123.26766      370.70469      301.84178      8413.9138      9912.1448      165633.39     -240125.12     -64579.585    
   2311500   39.590727      40.33697       123.26766      62.791356      293.89071      8191.9892      9741.6054      165689.61     -240125.71     -64694.496    
   2312000   39.590727      40.33697       123.26766      217.11522      300.08246      8364.3652      9853.956       165698.58     -240111.05     -64558.515    
   2312500   39.590727      40.33697       123.26766      428.56229      297.97935      8307.5288      10059.637      165370.89     -240124.16     -64693.636    
   2313000   39.590727      40.33697       123.26766      336.80236      301.08465      8392.3798      9928.8545      165590.14     -240110.35     -64591.359    
   2313500   39.590727      40.33697       123.26766      465.74098      299.44257      8346.7434      10069.159      165321.98     -240115        -64723.864    
   2314000   39.590727      40.33697       123.26766      291.07427      297.70166      8298.0037      9843.8227      165652.97     -240110.71     -64613.92     
   2314500   39.590727      40.33697       123.26766      431.12741      300.11237      8365.4997      10007.626      165510.08     -240125.65     -64607.943    
   2315000   39.590727      40.33697       123.26766      461.32807      300.09109      8364.6243      10065.757      165409.9      -240118.05     -64642.388    
   2315500   39.590727      40.33697       123.26766      284.24575      301.32311      8398.9864      9812.7403      165896.93     -240113.77     -64404.102    
   2316000   39.590727      40.33697       123.26766      292.76052      299.86075      8359.381       9897.1117      165649.01     -240111.93     -64565.803    
   2316500   39.590727      40.33697       123.26766      301.28346      303.61371      8462.7959      9954.0912      165364.17     -240116.87     -64798.613    
   2317000   39.590727      40.33697       123.26766      181.12436      301.42599      8401.8785      9781.3964      165672.71     -240127.9      -64673.789    
   2317500   39.590727      40.33697       123.26766      423.11444      299.03974      8336.6025      9949.1892      165596.54     -240117.31     -64571.578    
   2318000   39.590727      40.33697       123.26766      186.69778      302.61025      8435.2698      9763.7472      165688.64     -240118.33     -64665.934    
   2318500   39.590727      40.33697       123.26766      293.24526      302.01699      8418.5224      9838.0217      165557.5      -240127.53     -64732.002    
   2319000   39.590727      40.33697       123.26766      673.6379       304.60024      8491.4122      10180.243      165300.34     -240132.1      -64651.516    
   2319500   39.590727      40.33697       123.26766      478.76318      300.04175      8363.2695      10022.907      165466.42     -240119.54     -64630.207    
   2320000   39.590727      40.33697       123.26766      307.05875      294.65163      8213.3302      9891.4532      165477.06     -240129.86     -64761.355    
   2320500   39.590727      40.33697       123.26766      210.79671      299.52105      8349.1794      9823.187       165605.82     -240111.98     -64682.973    
   2321000   39.590727      40.33697       123.26766      411.45433      302.18846      8423.101       10006.292      165323.84     -240129.46     -64799.322    
   2321500   39.590727      40.33697       123.26766      296.56376      301.10725      8393.1165      9954.322       165387.8      -240124.18     -64782.057    
   2322000   39.590727      40.33697       123.26766      564.9249       296.79357      8272.7138      10152.709      165230.14     -240130.91     -64748.058    
   2322500   39.590727      40.33697       123.26766      367.85303      304.17563      8478.5891      9952.2427      165422.01     -240120.48     -64746.233    
   2323000   39.590727      40.33697       123.26766      776.61674      301.28501      8397.8856      10344.402      164985        -240121.64     -64792.244    
   2323500   39.590727      40.33697       123.26766      438.57513      296.503        8264.7348      10012.373      165381.44     -240104.69     -64710.876    
   2324000   39.590727      40.33697       123.26766      230.22654      301.86307      8414.5822      9791.0305      165787.11     -240119.7      -64541.557    
   2324500   39.590727      40.33697       123.26766      159.89338      298.65649      8326.8076      9796.8103      165711.98     -240123.04     -64614.251    
   2325000   39.590727      40.33697       123.26766      36.250778      298.43139      8318.4996      9733.761       165714.24     -240112.42     -64664.427    
   2325500   39.590727      40.33697       123.26766      200.28606      299.70217      8354.86        9796.9123      165773.69     -240117.13     -64546.527    
   2326000   39.590727      40.33697       123.26766      246.5785       302.90391      8443.1591      9859.8616      165676.06     -240113.26     -64577.331    
   2326500   39.590727      40.33697       123.26766      153.60978      299.68951      8353.5854      9865.7474      165455.38     -240122.21     -64801.081    
   2327000   39.590727      40.33697       123.26766      423.37476      300.90035      8387.7939      10106.442      165270.55     -240126.7      -64749.713    
   2327500   39.590727      40.33697       123.26766      487.86717      298.97266      8333.4908      10036.713      165521.07     -240113.38     -64555.598    
   2328000   39.590727      40.33697       123.26766      524.00049      296.8844       8275.2253      10050.655      165519.12     -240115.24     -64545.467    
   2328500   39.590727      40.33697       123.26766      506.63384      298.80141      8329.2693      10081.098      165275.6      -240126.84     -64770.145    
   2329000   39.590727      40.33697       123.26766      68.523826      302.69423      8437.3884      9718.0443      165640.68     -240120.51     -64761.79     
   2329500   39.590727      40.33697       123.26766      151.2867       298.88575      8331.1491      9799.5071      165715.64     -240108.99     -64593.849    
   2330000   39.590727      40.33697       123.26766      121.42017      302.4012       8429.0106      9714.1026      165791.31     -240133.43     -64628.017    
   2330500   39.590727      40.33697       123.26766      342.24124      302.9602       8444.5779      9923.8293      165477.13     -240122.53     -64721.578    
   2331000   39.590727      40.33697       123.26766      271.51485      299.54983      8349.6586      9871.4576      165470.48     -240125.8      -64783.858    
   2331500   39.590727      40.33697       123.26766      433.55604      300.62521      8379.5939      10004.333      165304.19     -240124.69     -64816.172    
   2332000   39.590727      40.33697       123.26766      272.34041      300.43324      8374.4248      9803.2604      165648.31     -240128.63     -64677.063    
   2332500   39.590727      40.33697       123.26766      198.42166      299.5072       8348.5722      9747.3202      165719.18     -240136.7      -64670.202    
   2333000   39.590727      40.33697       123.26766      221.64839      297.77393      8300.0761      9720.9668      165822.36     -240119.4      -64576.074    
   2333500   39.590727      40.33697       123.26766      368.53524      302.67971      8437.0904      9924.359       165602.96     -240125.69     -64598.37     
   2334000   39.590727      40.33697       123.26766      628.03706      294.21202      8200.7609      10186.327      165134.95     -240129.48     -64808.204    
   2334500   39.590727      40.33697       123.26766      414.00594      298.52819      8321.1149      9979.0106      165344.04     -240122.78     -64799.733    
   2335000   39.590727      40.33697       123.26766      505.13692      299.69471      8353.7142      10030.6        165368.47     -240130.28     -64731.209    
   2335500   39.590727      40.33697       123.26766      472.38032      299.10302      8339.2185      9991.2555      165434.42     -240121.55     -64695.868    
   2336000   39.590727      40.33697       123.26766      251.02248      297.34238      8288.3232      9706.1077      165818.92     -240118.14     