LAMMPS (22 Jul 2025 - Update 3)
KOKKOS mode with Kokkos version 4.6.2 is enabled
  will use up to 1 GPU(s) per node
WARNING: When using a single thread, the Kokkos Serial backend (i.e. Makefile.kokkos_mpi_only) gives better performance than the OpenMP backend (src/KOKKOS/kokkos.cpp:221)
  using 1 OpenMP thread(s) per MPI task
package kokkos
echo screen
ERROR: Package gpu command without GPU package installed (src/input.cpp:1708)
Last input line: package gpu 1 neigh no
