h-BN pore — removed 30 filter atoms, 650 remaining, uncharged
15318 atoms
9196 bonds
4598 angles

8 atom types
1 bond types
1 angle types

0.000000 42.500000 xlo xhi
0.000000 43.301270 ylo yhi
0.000000 130.000000 zlo zhi

Masses

1 12.0107
2 12.0107
3 15.9994
4 1.00849
5 39.0983
6 35.453
7 10.811
8 14.007

Atoms

       1        2        3      -0.8476       5.1900      16.7000     117.0700
       2        2        4       0.4238       6.0800      16.9800     116.8200
       3        2        4       0.4238       5.3400      15.8300     117.4900
       4        3        3      -0.8476       3.7900      16.3200     106.3100
       5        3        4       0.4238       3.7800      15.3900     106.2000
       6        3        4       0.4238       4.5300      16.5800     105.7800
       7        4        3      -0.8476      16.1300      14.7000     109.5800
       8        4        4       0.4238      16.0700      14.2700     108.7300
       9        4        4       0.4238      16.8100      15.4500     109.4400
      10        5        3      -0.8476       2.7500       8.8400     114.6300
      11        5        4       0.4238       2.1100       8.2900     115.0000
      12        5        4       0.4238       2.1600       9.2400     113.9600
      13        6        3      -0.8476      10.6700       8.9100     109.9900
      14        6        4       0.4238      11.0000       8.8700     110.9300
      15        6        4       0.4238       9.7500       9.2700     110.0700
      16        7        3      -0.8476      12.8900      29.6600     114.0900
      17        7        4       0.4238      12.5800      29.8000     114.9700
      18        7        4       0.4238      13.7600      29.3400     114.2100
      19        8        3      -0.8476       1.6600       6.6800     106.9400
      20        8        4       0.4238       1.9400       5.7400     106.9800
      21        8        4       0.4238       0.7800       6.6000     106.4800
      22        9        3      -0.8476       4.8200      20.6000     116.2400
      23        9        4       0.4238       5.4700      20.7800     116.9600
      24        9        4       0.4238       5.3800      20.9100     115.4600
      25       10        3      -0.8476      15.0200      20.8500     117.8300
      26       10        4       0.4238      14.2200      20.8100     118.2900
      27       10        4       0.4238      14.6700      21.0600     116.9200
      28       11        3      -0.8476       5.6100      23.9200     117.9600
      29       11        4       0.4238       4.8400      23.6200     117.5400
      30       11        4       0.4238       6.0400      24.3400     117.2100
      31       12        3      -0.8476      10.4300       7.6000     107.4000
      32       12        4       0.4238      10.7600       8.4000     106.9900
      33       12        4       0.4238      10.2500       7.8900     108.3100
      34       13        3      -0.8476       8.5700      25.6800     117.2100
      35       13        4       0.4238       9.1200      25.5400     118.0100
      36       13        4       0.4238       8.8100      26.5900     116.9300
      37       14        3      -0.8476      22.5700       6.2400     108.4800
      38       14        4       0.4238      21.7000       5.8400     108.8300
      39       14        4       0.4238      22.9500       5.6600     107.8600
      40       15        3      -0.8476      10.9300       5.3600     106.0200
      41       15        4       0.4238      11.1400       4.7700     106.7500
      42       15        4       0.4238      10.6600       6.2100     106.4900
      43       16        3      -0.8476      16.4700      28.0900     107.1800
      44       16        4       0.4238      16.8500      27.2300     107.5000
      45       16        4       0.4238      15.5300      27.8600     107.0900
      46       17        3      -0.8476       8.3800      32.9100     113.7400
      47       17        4       0.4238       9.1000      32.2800     113.7300
      48       17        4       0.4238       8.8100      33.7900     113.5700
      49       18        3      -0.8476       0.8000      25.0800     110.5200
      50       18        4       0.4238       0.5800      26.0700     110.5000
      51       18        4       0.4238       1.7900      25.1600     110.4400
      52       19        3      -0.8476       4.3000      17.7700     112.1700
      53       19        4       0.4238       3.3000      17.8000     112.3200
      54       19        4       0.4238       4.5300      18.7500     111.9200
      55       20        3      -0.8476       8.8900      12.9800     110.3200
      56       20        4       0.4238       8.1200      12.4800     110.4400
      57       20        4       0.4238       9.3400      12.5600     109.5400
      58       21        3      -0.8476       2.1700      18.4700     107.2100
      59       21        4       0.4238       2.6300      17.6300     107.2000
      60       21        4       0.4238       2.9300      19.1200     107.2800
      61       22        3      -0.8476       1.3300      36.1400     107.7000
      62       22        4       0.4238       0.3700      36.1300     107.9600
      63       22        4       0.4238       1.6700      35.2800     108.0300
      64       23        3      -0.8476       2.9200      31.9100     113.9800
      65       23        4       0.4238       3.7700      32.3900     114.0200
      66       23        4       0.4238       2.2200      32.5800     114.0300
      67       24        3      -0.8476       0.5600      29.2500     106.5800
      68       24        4       0.4238       1.4600      29.5600     106.7400
      69       24        4       0.4238       0.5900      28.3300     106.7900
      70       25        3      -0.8476       9.8600      38.3900     110.5600
      71       25        4       0.4238       9.0900      38.1300     110.9900
      72       25        4       0.4238      10.2800      39.0000     111.0800
      73       26        3      -0.8476      10.0800      34.6700     116.9300
      74       26        4       0.4238      10.2100      35.1200     117.7900
      75       26        4       0.4238       9.4500      35.2900     116.5400
      76       27        3      -0.8476       5.8900      35.2100     112.5600
      77       27        4       0.4238       5.5100      35.8500     111.8900
      78       27        4       0.4238       6.8000      35.0800     112.3100
      79       28        3      -0.8476      15.4100       6.5700     107.5000
      80       28        4       0.4238      16.2200       6.8600     107.1300
      81       28        4       0.4238      14.8100       6.7000     106.6700
      82       29        3      -0.8476       9.9400      12.8800     115.1900
      83       29        4       0.4238       9.7100      12.1000     114.6300
      84       29        4       0.4238       9.4700      12.7700     116.0200
      85       30        3      -0.8476      13.8900       1.9200     107.9900
      86       30        4       0.4238      14.2000       2.6800     108.4200
      87       30        4       0.4238      13.2100       1.5800     108.5800
      88       31        3      -0.8476       8.8200      10.5800     113.8300
      89       31        4       0.4238       8.1800      10.7500     113.1500
      90       31        4       0.4238       8.3900      10.0600     114.5300
      91       32        3      -0.8476       9.0800      11.9700     117.7300
      92       32        4       0.4238       8.2300      11.5600     117.9900
      93       32        4       0.4238       9.5100      12.1900     118.5600
      94       33        3      -0.8476      10.2800       0.6400     107.0500
      95       33        4       0.4238      10.3700       0.9600     108.0200
      96       33        4       0.4238       9.7400       1.3200     106.6700
      97       34        3      -0.8476       4.6200       8.1200     112.7800
      98       34        4       0.4238       5.4100       7.9200     113.3100
      99       34        4       0.4238       4.0000       8.4600     113.4200
     100       35        3      -0.8476       3.4000       4.6900     114.8200
     101       35        4       0.4238       3.1100       5.2700     114.1000
     102       35        4       0.4238       3.8200       3.9700     114.3300
     103       36        3      -0.8476       3.1200      10.3200     118.1600
     104       36        4       0.4238       3.6000      10.9000     117.5100
     105       36        4       0.4238       3.4400       9.4300     117.9600
     106       37        3      -0.8476       6.3800      22.2700     107.3200
     107       37        4       0.4238       5.5500      22.0300     106.8500
     108       37        4       0.4238       6.8600      21.4700     107.1900
     109       38        3      -0.8476      31.8000      12.7600     112.0500
     110       38        4       0.4238      31.5400      13.6400     111.7300
     111       38        4       0.4238      32.2900      12.9300     112.8700
     112       39        3      -0.8476      20.6100      13.6200     116.0700
     113       39        4       0.4238      20.7400      13.9600     115.2200
     114       39        4       0.4238      19.6200      13.8200     116.2500
     115       40        3      -0.8476       8.8800      28.4400     110.5800
     116       40        4       0.4238       9.2300      27.5800     110.3600
     117       40        4       0.4238       8.7900      28.4000     111.5300
     118       41        3      -0.8476       5.4600      13.1000     109.5900
     119       41        4       0.4238       5.6700      13.0200     108.6100
     120       41        4       0.4238       4.9000      13.8900     109.6600
     121       42        3      -0.8476       5.1600      13.7400     112.9500
     122       42        4       0.4238       6.0500      13.4200     113.2100
     123       42        4       0.4238       5.0100      14.4900     113.5300
     124       43        3      -0.8476       1.6800      21.9400     106.0400
     125       43        4       0.4238       1.2700      21.2800     106.5900
     126       43        4       0.4238       1.5000      22.8100     106.4900
     127       44        3      -0.8476       9.6300      21.5500     108.0000
     128       44        4       0.4238       9.6000      22.4700     107.6400
     129       44        4       0.4238       9.2900      20.9500     107.3100
     130       45        3      -0.8476       0.7500      34.0400     117.9200
     131       45        4       0.4238       1.3800      34.2000     118.6600
     132       45        4       0.4238       0.3300      33.2200     118.2300
     133       46        3      -0.8476       2.3400      10.5700     107.6200
     134       46        4       0.4238       2.1200      10.7500     108.5500
     135       46        4       0.4238       2.9500       9.7900     107.6200
     136       47        3      -0.8476       0.8200      23.6700     107.8900
     137       47        4       0.4238       1.6400      23.3200     108.3400
     138       47        4       0.4238       0.2500      23.9800     108.6400
     139       48        3      -0.8476       2.0800      28.3300     112.3300
     140       48        4       0.4238       1.5600      28.5100     113.1100
     141       48        4       0.4238       1.5000      27.7400     111.8100
     142       49        3      -0.8476      13.2200      24.4900     118.0900
     143       49        4       0.4238      12.8900      25.3800     118.2900
     144       49        4       0.4238      13.0600      23.9200     118.8500
     145       50        3      -0.8476       1.0000      28.0200     115.0100
     146       50        4       0.4238       0.0100      27.9800     115.0400
     147       50        4       0.4238       1.3000      27.1200     115.2600
     148       51        3      -0.8476       2.7100       6.1800     112.5400
     149       51        4       0.4238       2.4700       6.2400     111.5600
     150       51        4       0.4238       3.4100       6.8600     112.5800
     151       52        3      -0.8476      16.1900      22.4000     108.7800
     152       52        4       0.4238      16.3600      22.8800     109.6200
     153       52        4       0.4238      16.4300      23.0700     108.0900
     154       53        3      -0.8476      13.5400      22.2200     107.7500
     155       53        4       0.4238      12.9700      22.4800     108.4600
     156       53        4       0.4238      14.4300      22.4000     108.0700
     157       54        3      -0.8476       3.0100      33.9700     119.7500
     158       54        4       0.4238       3.7500      34.2100     119.1600
     159       54        4       0.4238       3.1000      33.0400     119.9300
     160       55        3      -0.8476       8.1800      23.4700     112.6400
     161       55        4       0.4238       9.0100      23.9400     112.7000
     162       55        4       0.4238       7.5200      24.1200     112.3100
     163       56        3      -0.8476      10.9300      14.7500     110.7200
     164       56        4       0.4238      10.0500      14.5400     110.4100
     165       56        4       0.4238      11.4000      13.8800     110.7200
     166       57        3      -0.8476       9.0900      37.6300     115.8600
     167       57        4       0.4238       8.6000      38.4600     115.6700
     168       57        4       0.4238       9.1900      37.6800     116.8600
     169       58        3      -0.8476       5.2100      35.7300     106.9000
     170       58        4       0.4238       5.7500      35.7300     106.1000
     171       58        4       0.4238       4.5900      36.4600     106.6700
     172       59        3      -0.8476      21.9500      32.1500     117.1200
     173       59        4       0.4238      22.0300      32.7600     117.8300
     174       59        4       0.4238      22.7000      32.4000     116.5000
     175       60        3      -0.8476       4.0600      33.7600     110.6400
     176       60        4       0.4238       3.6800      34.3100     111.3600
     177       60        4       0.4238       3.2900      33.2500     110.3800
     178       61        3      -0.8476       6.6000      37.0700     118.6600
     179       61        4       0.4238       6.8500      36.6700     119.4500
     180       61        4       0.4238       6.7100      38.0400     118.8600
     181       62        3      -0.8476       1.7600      39.5300     112.7600
     182       62        4       0.4238       0.7600      39.6000     112.7200
     183       62        4       0.4238       1.9400      38.9600     113.5400
     184       63        3      -0.8476       0.7500       4.4700     115.5800
     185       63        4       0.4238       0.4300       3.5700     115.3400
     186       63        4       0.4238       1.5000       4.5900     114.9900
     187       64        3      -0.8476      26.9000      12.0900     105.6800
     188       64        4       0.4238      26.5100      11.2800     105.3000
     189       64        4       0.4238      27.8800      11.9300     105.5500
     190       65        3      -0.8476      11.7600      19.6100     114.9600
     191       65        4       0.4238      12.2800      20.4100     114.8700
     192       65        4       0.4238      12.4400      18.9100     114.9000
     193       66        3      -0.8476       7.0300       2.2200     118.4100
     194       66        4       0.4238       6.1800       2.8000     118.5400
     195       66        4       0.4238       6.6900       1.4000     118.7400
     196       67        3      -0.8476      17.8100       5.7700     110.8800
     197       67        4       0.4238      17.2200       6.3200     110.3800
     198       67        4       0.4238      17.5500       4.8700     110.6700
     199       68        3      -0.8476       4.0300       7.7000     117.7800
     200       68        4       0.4238       4.5800       7.1900     117.1400
     201       68        4       0.4238       3.1700       7.3200     117.5400
     202       69        3      -0.8476      12.4900       9.4500     107.2100
     203       69        4       0.4238      12.9100       9.8400     107.9900
     204       69        4       0.4238      12.9800       8.6400     107.0400
     205       70        3      -0.8476      11.1800       9.6100     112.9300
     206       70        4       0.4238      10.4400      10.1700     113.0500
     207       70        4       0.4238      10.8700       8.7900     113.3000
     208       71        3      -0.8476      18.4400      16.1300     108.8400
     209       71        4       0.4238      18.6100      16.4900     107.9700
     210       71        4       0.4238      19.1100      15.4100     108.9600
     211       72        3      -0.8476      15.4300       3.2700     112.4100
     212       72        4       0.4238      15.4600       2.7400     113.1600
     213       72        4       0.4238      15.9300       2.7400     111.7700
     214       73        3      -0.8476      13.1300       4.5300     111.5600
     215       73        4       0.4238      12.4300       3.9300     111.9400
     216       73        4       0.4238      13.9600       4.1600     111.9600
     217       74        3      -0.8476      16.0100      17.8000     116.4100
     218       74        4       0.4238      16.6900      17.7000     115.6800
     219       74        4       0.4238      15.1900      17.5200     115.9400
     220       75        3      -0.8476       7.8300      19.7500     107.0000
     221       75        4       0.4238       7.2600      19.8700     106.2500
     222       75        4       0.4238       8.3300      18.9200     106.8900
     223       76        3      -0.8476      13.6600      26.4300     111.5300
     224       76        4       0.4238      13.8500      26.2600     112.4800
     225       76        4       0.4238      13.3500      27.3700     111.5300
     226       77        3      -0.8476      15.0300      11.2500     114.8100
     227       77        4       0.4238      15.6400      10.9500     114.1000
     228       77        4       0.4238      14.9300      12.1900     114.5400
     229       78        3      -0.8476      30.8700      28.7300     107.7300
     230       78        4       0.4238      30.9900      29.4200     107.0200
     231       78        4       0.4238      31.5100      28.0400     107.4800
     232       79        3      -0.8476      13.9100      26.4600     107.2900
     233       79        4       0.4238      13.6700      27.3900     107.5400
     234       79        4       0.4238      13.4900      25.9200     108.0000
     235       80        3      -0.8476      11.1600      32.8600     106.3400
     236       80        4       0.4238      11.3800      32.0300     105.9700
     237       80        4       0.4238      10.9100      32.6700     107.2400
     238       81        3      -0.8476      24.4500      36.4000     112.8800
     239       81        4       0.4238      25.4300      36.5500     112.8600
     240       81        4       0.4238      24.1400      36.3300     111.9400
     241       82        3      -0.8476      14.6000      18.1100     108.2100
     242       82        4       0.4238      14.2700      17.6600     108.9600
     243       82        4       0.4238      13.8400      18.6100     107.8800
     244       83        3      -0.8476       4.7500      20.1400     110.4700
     245       83        4       0.4238       4.7700      21.0500     110.8500
     246       83        4       0.4238       5.6600      20.0300     110.2000
     247       84        3      -0.8476       1.6200      17.3500     119.3600
     248       84        4       0.4238       1.2300      16.4800     119.4200
     249       84        4       0.4238       0.8600      17.9800     119.0500
     250       85        3      -0.8476       2.3700      19.6200     115.8400
     251       85        4       0.4238       2.0500      19.4200     116.7000
     252       85        4       0.4238       3.3500      19.7200     115.9200
     253       86        3      -0.8476      15.1600      15.2200     106.4500
     254       86        4       0.4238      15.2900      16.1200     106.1600
     255       86        4       0.4238      14.1800      15.2200     106.5900
     256       87        3      -0.8476       7.9300       9.6000     109.3200
     257       87        4       0.4238       7.3600      10.3400     108.9100
     258       87        4       0.4238       7.3200       9.0100     109.8200
     259       88        3      -0.8476      10.2100      26.9300     106.9700
     260       88        4       0.4238       9.4000      27.2900     106.5200
     261       88        4       0.4238      10.5200      27.6700     107.6200
     262       89        3      -0.8476       8.4600      31.0100     105.8600
     263       89        4       0.4238       8.2400      31.6600     106.5100
     264       89        4       0.4238       7.8100      30.3100     106.0700
     265       90        3      -0.8476       6.2500      27.7400     118.6700
     266       90        4       0.4238       6.4600      28.3600     118.0000
     267       90        4       0.4238       7.0900      27.2400     118.8500
     268       91        3      -0.8476      13.7600      25.7900     114.5200
     269       91        4       0.4238      12.8300      25.6700     114.7700
     270       91        4       0.4238      14.1500      25.7500     115.3700
     271       92        3      -0.8476       2.5200      30.6700     111.2600
     272       92        4       0.4238       2.6700      29.7500     111.4400
     273       92        4       0.4238       2.4200      31.1500     112.1400
     274       93        3      -0.8476      19.8300      29.7900     110.5200
     275       93        4       0.4238      20.2700      30.3600     111.1900
     276       93        4       0.4238      19.3700      29.1800     111.0500
     277       94        3      -0.8476       3.2600      29.7500     115.4800
     278       94        4       0.4238       3.3800      30.3100     114.7200
     279       94        4       0.4238       2.5000      29.2200     115.1400
     280       95        3      -0.8476       6.7000      26.5900     109.8500
     281       95        4       0.4238       7.4100      27.2100     109.7600
     282       95        4       0.4238       6.7200      26.0700     109.0100
     283       96        3      -0.8476      21.3700      17.8900     110.8800
     284       96        4       0.4238      20.7300      17.1900     111.2000
     285       96        4       0.4238      22.1600      17.7700     111.3800
     286       97        3      -0.8476      21.0500      14.4900     109.2900
     287       97        4       0.4238      20.6600      14.0200     110.0100
     288       97        4       0.4238      21.7900      15.0100     109.7500
     289       98        3      -0.8476       8.2300      38.7700     108.3400
     290       98        4       0.4238       8.8000      38.2800     108.8900
     291       98        4       0.4238       7.9200      39.4700     108.9600
     292       99        3      -0.8476       6.1500      36.1200     116.1600
     293       99        4       0.4238       6.2500      36.5500     117.0300
     294       99        4       0.4238       6.6400      36.7000     115.5100
     295      100        3      -0.8476      11.8900      33.5100     115.4400
     296      100        4       0.4238      11.1000      33.6300     115.9100
     297      100        4       0.4238      12.3500      34.3700     115.4500
     298      101        3      -0.8476       6.6400      38.5100     114.3100
     299      101        4       0.4238       5.9700      38.1800     113.8200
     300      101        4       0.4238       6.3400      39.3500     114.7500
     301      102        3      -0.8476       5.3400      29.9600     117.1800
     302      102        4       0.4238       4.5100      29.8100     116.7300
     303      102        4       0.4238       5.7600      30.6400     116.6200
     304      103        3      -0.8476       3.3200       1.4400     108.6900
     305      103        4       0.4238       3.0200       1.2600     107.7900
     306      103        4       0.4238       4.2200       1.7400     108.5300
     307      104        3      -0.8476      16.1000       8.4000     115.6300
     308      104        4       0.4238      16.0800       9.3900     115.7100
     309      104        4       0.4238      16.0800       8.3500     114.6200
     310      105        3      -0.8476       8.3800      22.8400     119.0700
     311      105        4       0.4238       9.1300      23.0800     118.4800
     312      105        4       0.4238       7.8100      23.6500     119.1100
     313      106        3      -0.8476      18.4800       3.0900     106.3800
     314      106        4       0.4238      17.5400       3.2100     106.5700
     315      106        4       0.4238      18.6000       2.1400     106.2000
     316      107        3      -0.8476      15.5300       5.9800     113.5200
     317      107        4       0.4238      16.4000       5.6300     113.8100
     318      107        4       0.4238      15.2200       5.3300     112.8700
     319      108        3      -0.8476       4.5400       2.6100     113.2900
     320      108        4       0.4238       5.4600       2.7000     113.1200
     321      108        4       0.4238       4.4300       1.6200     113.3600
     322      109        3      -0.8476      20.0300       7.0800     114.0200
     323      109        4       0.4238      20.6700       7.7200     114.0800
     324      109        4       0.4238      19.3900       7.5700     113.5300
     325      110        3      -0.8476       8.8800      21.5800     110.7600
     326      110        4       0.4238       8.7000      22.2300     111.4500
     327      110        4       0.4238       9.3600      22.0100     110.0800
     328      111        3      -0.8476      19.4000      12.3600     106.9800
     329      111        4       0.4238      19.7200      11.5000     106.6000
     330      111        4       0.4238      19.0900      12.0600     107.8500
     331      112        3      -0.8476      24.1700       6.8200     110.7800
     332      112        4       0.4238      23.8700       6.6100     109.8700
     333      112        4       0.4238      23.3600       7.1800     111.2500
     334      113        3      -0.8476      12.7900      13.3600     117.1700
     335      113        4       0.4238      12.7900      13.5500     116.2200
     336      113        4       0.4238      11.9900      13.7900     117.4000
     337      114        3      -0.8476       6.6700       7.5500     114.6500
     338      114        4       0.4238       6.1000       6.9700     115.3000
     339      114        4       0.4238       7.5600       7.2900     115.0500
     340      115        3      -0.8476      10.1300      17.4900     111.5500
     341      115        4       0.4238       9.2300      17.4700     111.9200
     342      115        4       0.4238      10.1100      16.7000     110.9900
     343      116        3      -0.8476      22.4100       7.6100     117.6700
     344      116        4       0.4238      21.8500       7.9800     118.3900
     345      116        4       0.4238      21.9600       6.7700     117.4900
     346      117        3      -0.8476       4.6500       5.7200     110.0200
     347      117        4       0.4238       5.0600       5.1300     109.3900
     348      117        4       0.4238       5.4100       5.7800     110.6300
     349      118        3      -0.8476      12.3400      14.9000     114.3500
     350      118        4       0.4238      11.8500      15.5900     113.8800
     351      118        4       0.4238      11.5700      14.3800     114.7700
     352      119        3      -0.8476       5.4900      14.2600     118.2100
     353      119        4       0.4238       6.2800      14.1300     118.7100
     354      119        4       0.4238       4.8600      13.9900     118.8800
     355      120        3      -0.8476       3.6900       8.3500     108.4000
     356      120        4       0.4238       4.4900       7.9300     108.0800
     357      120        4       0.4238       3.0400       7.7300     108.2000
     358      121        3      -0.8476      15.4300      13.9000     118.4200
     359      121        4       0.4238      15.6000      14.7000     118.9200
     360      121        4       0.4238      14.5700      14.0300     117.9900
     361      122        3      -0.8476      13.2600      23.5100     112.3300
     362      122        4       0.4238      14.0800      23.9000     112.6900
     363      122        4       0.4238      13.6700      22.8000     111.7400
     364      123        3      -0.8476       4.2900      25.6700     106.4700
     365      123        4       0.4238       5.0100      25.3000     106.9100
     366      123        4       0.4238       3.6300      25.0300     106.5100
     367      124        3      -0.8476      10.0300      11.4400     108.4300
     368      124        4       0.4238       9.2700      10.8300     108.4200
     369      124        4       0.4238      10.5300      11.3600     107.6600
     370      125        3      -0.8476      10.5500       9.5400     116.3200
     371      125        4       0.4238      10.0600      10.3400     116.4000
     372      125        4       0.4238      11.4600       9.8500     116.3400
     373      126        3      -0.8476      17.2000      18.0400     118.7800
     374      126        4       0.4238      17.4900      17.0800     118.7500
     375      126        4       0.4238      16.8700      18.0800     117.8600