LAMMPS (22 Jul 2025 - Update 3)
OMP_NUM_THREADS environment is not set. Defaulting to 1 thread.
  using 1 OpenMP thread(s) per MPI task
echo screen
Reading data file ...
  orthogonal box = (0 0 0) to (44.66 44.201937 130)
  2 by 1 by 4 MPI processor grid
  reading atoms ...
  15374 atoms
  scanning bonds ...
  2 = max bonds/atom
  scanning angles ...
  1 = max angles/atom
  orthogonal box = (0 0 0) to (44.66 44.201937 130)
  2 by 1 by 4 MPI processor grid
  reading bonds ...
  9196 bonds
  reading angles ...
  4598 angles
Finding 1-2 1-3 1-4 neighbors ...
  special bond factors lj:    0        0        0       
  special bond factors coul:  0        0        0       
     2 = max # of 1-2 neighbors
     1 = max # of 1-3 neighbors
     1 = max # of 1-4 neighbors
     2 = max # of special neighbors
  special bonds CPU = 0.001 seconds
  read_data CPU = 0.148 seconds
777 atoms in group gra
647 atoms in group PORE
13794 atoms in group fluidmols
78 atoms in group Potassium
78 atoms in group Chloride
13950 atoms in group mixfluids
4598 atoms in group oxygen
777 atoms in group gra1
647 atoms in group gra2
PPPM initialization ...
WARNING: System is not charge neutral, net charge = -0.5
For more information see https://docs.lammps.org/err0029 (src/kspace.cpp:330)
  using 12-bit tables for long-range coulomb
  G vector (1/distance) = 0.24818847
  grid = 32 32 72
  stencil order = 5
  estimated absolute RMS force accuracy = 0.0031478916
  estimated relative force accuracy = 9.4797821e-06
  using double precision FFTW3
  3d grid and FFT values/proc = 22425 9216
Generated 28 of 28 mixed pair_coeff terms from arithmetic mixing rule
WARNING: Neighbor exclusions used with KSpace solver may give inconsistent Coulombic energies (src/neighbor.cpp:671)
Neighbor list info ...
  update: every = 1 steps, delay = 0 steps, check = yes
  max neighbors/atom: 2000, page size: 100000
  master list distance cutoff = 14
  ghost atom cutoff = 14
  binsize = 7, bins = 7 7 19
  1 neighbor lists, perpetual/occasional/extra = 1 0 0
  (1) pair lj/cut/coul/long, perpetual
      attributes: half, newton on
      pair build: half/bin/newton
      stencil: half/bin/3d
      bin: standard
Per MPI rank memory allocation (min/avg/max) = 11.66 | 13.4 | 15.6 Mbytes
   Step          Temp          E_pair         E_mol          TotEng         Press     
         0   0             -43228.174      13807.755     -29420.419      30853.402    
       497   0             -77694.486      3700.9398     -73993.547     -3392.5685    
Loop time of 26.2619 on 8 procs for 497 steps with 15374 atoms

98.5% CPU use with 8 MPI tasks x 1 OpenMP threads

Minimization stats:
  Stopping criterion = energy tolerance
  Energy initial, next-to-last, final = 
      -29420.418832221  -73986.3331166162  -73993.5465048002
  Force two-norm initial, final = 6121.0076 66.482602
  Force max component initial, final = 221.5137 9.3793037
  Final line search alpha, max atom move = 0.0016271446 0.015261484
  Iterations, force evaluations = 497 969

MPI task timing breakdown:
Section |  min time  |  avg time  |  max time  |%varavg| %total
---------------------------------------------------------------
Pair    | 6.4576     | 13.772     | 22.76      | 137.1 | 52.44
Bond    | 0.032427   | 0.04817    | 0.070097   |   6.0 |  0.18
Kspace  | 2.6665     | 11.689     | 19.036     | 149.4 | 44.51
Neigh   | 0.20604    | 0.20841    | 0.20941    |   0.3 |  0.79
Comm    | 0.36305    | 0.38815    | 0.4101     |   2.4 |  1.48
Output  | 0          | 0          | 0          |   0.0 |  0.00
Modify  | 0.0038938  | 0.0046678  | 0.0055511  |   0.8 |  0.02
Other   |            | 0.1519     |            |       |  0.58

Nlocal:        1921.75 ave        2671 max        1303 min
Histogram: 1 2 0 1 1 1 0 0 1 1
Nghost:        11049.6 ave       14329 max        8331 min
Histogram: 2 2 0 0 0 0 1 1 0 2
Neighs:         765342 ave 1.26291e+06 max      352701 min
Histogram: 2 0 1 0 2 0 1 1 0 1

Total # of neighbors = 6122734
Ave neighs/atom = 398.2525
Ave special neighs/atom = 1.7944582
Neighbor list builds = 5
Dangerous builds = 0
Finding SHAKE clusters ...
       0 = # of size 2 clusters
       0 = # of size 3 clusters
       0 = # of size 4 clusters
    4598 = # of frozen angles
  find clusters CPU = 0.001 seconds
  1 rigid bodies with 777 atoms
PPPM initialization ...
  using 12-bit tables for long-range coulomb
  G vector (1/distance) = 0.24818847
  grid = 32 32 72
  stencil order = 5
  estimated absolute RMS force accuracy = 0.0031478916
  estimated relative force accuracy = 9.4797821e-06
  using double precision FFTW3
  3d grid and FFT values/proc = 22425 9216
Generated 28 of 28 mixed pair_coeff terms from arithmetic mixing rule
WARNING: Neighbor exclusions used with KSpace solver may give inconsistent Coulombic energies (src/neighbor.cpp:671)
Per MPI rank memory allocation (min/avg/max) = 12.66 | 16.43 | 24.58 Mbytes
   Step          Temp          E_pair         E_mol          TotEng         Press          Volume    
         0   418.47        -77694.486      0             -65220.69      -394.59941      256627.61    
      5000   299.66481     -66656.722      0             -57724.284      47.492519      192191.14    
Loop time of 120.947 on 8 procs for 5000 steps with 15374 atoms

Performance: 3.572 ns/day, 6.719 hours/ns, 41.341 timesteps/s, 635.570 katom-step/s
98.2% CPU use with 8 MPI tasks x 1 OpenMP threads

MPI task timing breakdown:
Section |  min time  |  avg time  |  max time  |%varavg| %total
---------------------------------------------------------------
Pair    | 26.702     | 53.979     | 79.725     | 242.3 | 44.63
Bond    | 0.0051084  | 0.0058289  | 0.0071305  |   0.7 |  0.00
Kspace  | 14.894     | 40.719     | 68.1       | 280.3 | 33.67
Neigh   | 14.849     | 14.865     | 14.883     |   0.3 | 12.29
Comm    | 2.0812     | 2.1926     | 2.2969     |   5.7 |  1.81
Output  | 2.814e-05  | 3.0436e-05 | 4.1421e-05 |   0.0 |  0.00
Modify  | 7.8209     | 7.9541     | 8.3187     |   5.4 |  6.58
Other   |            | 1.231      |            |       |  1.02

Nlocal:        1921.75 ave        2414 max        1382 min
Histogram: 2 0 1 1 0 0 0 0 2 2
Nghost:        12988.4 ave       15955 max        9888 min
Histogram: 3 1 0 0 0 0 0 0 0 4
Neighs:         972144 ave 1.37471e+06 max      500050 min
Histogram: 2 0 0 1 1 0 0 2 0 2

Total # of neighbors = 7777153
Ave neighs/atom = 505.86399
Ave special neighs/atom = 1.7944582
Neighbor list builds = 287
Dangerous builds = 0
PPPM initialization ...
  using 12-bit tables for long-range coulomb
  G vector (1/distance) = 0.24868261
  grid = 30 30 64
  stencil order = 5
  estimated absolute RMS force accuracy = 0.0035124401
  estimated relative force accuracy = 1.0577609e-05
  using double precision FFTW3
  3d grid and FFT values/proc = 18722 7200
Generated 28 of 28 mixed pair_coeff terms from arithmetic mixing rule
WARNING: Neighbor exclusions used with KSpace solver may give inconsistent Coulombic energies (src/neighbor.cpp:671)
Per MPI rank memory allocation (min/avg/max) = 13.13 | 19.2 | 25.06 Mbytes
   Step           Lx             Ly             Lz           Press       c_fluidtemp       KinEng         E_vdwl         E_coul         E_long         PotEng    
         0   40.556648      40.140671      118.05562     -153.86102      320.46285      8932.4387      9414.4272      165293.82     -241372.55     -66664.31     
       500   40.556648      40.140671      118.05562     -397.55165      301.87848      8414.9016      9517.3836      164167.48     -241371.07     -67686.207    
      1000   40.556648      40.140671      118.05562     -305.25581      299.46927      8352.7981      9594.0745      164118.41     -241375.43     -67662.941    
      1500   40.556648      40.140671      118.05562     -220.93375      293.11002      8176.1386      9686.0811      163979.36     -241362.47     -67697.029    
      2000   40.556648      40.140671      118.05562      34.920307      299.98261      8364.3467      9866.0854      163696.3      -241377.78     -67815.391    
      2500   40.556648      40.140671      118.05562     -240.34449      295.06261      8232.8366      9697.9863      163616.63     -241365.71     -68051.087    
      3000   40.556648      40.140671      118.05562      5.3848612      303.11265      8457.834       9770.4444      163570.14     -241367.12     -68026.533    
      3500   40.556648      40.140671      118.05562     -133.12103      299.07028      8347.7734      9722.769       163348.63     -241365.04     -68293.639    
      4000   40.556648      40.140671      118.05562      37.362253      299.95229      8371.3507      9750.3713      163405.45     -241392.92     -68237.094    
      4500   40.556648      40.140671      118.05562      119.2308       301.11285      8417.1625      9785.793       163291.72     -241378.35     -68300.832    
      5000   40.556648      40.140671      118.05562      375.46568      298.2357       8326.3176      9932.325       163101.55     -241394.95     -68361.081    
      5500   40.556648      40.140671      118.05562      735.64965      302.22809      8434.4057      10170.953      162807.48     -241404.33     -68425.897    
      6000   40.556648      40.140671      118.05562      579.74942      303.19645      8461.895       10041.603      162784.44     -241389.97     -68563.929    
      6500   40.556648      40.140671      118.05562      782.37399      303.46631      8471.5878      10105.828      162807.68     -241394.25     -68480.738    
      7000   40.556648      40.140671      118.05562      980.98122      301.47932      8414.9282      10139.038      162935.88     -241389.41     -68314.486    
      7500   40.556648      40.140671      118.05562      880.30237      300.02707      8367.0708      10121.48       162615.29     -241396.33     -68659.564    
      8000   40.556648      40.140671      118.05562      1229.9204      305.29235      8512.5933      10420.312      162249.61     -241395.56     -68725.641    
      8500   40.556648      40.140671      118.05562      1320.5044      303.41829      8460.3255      10259.724      162603.84     -241389.54     -68525.978    
      9000   40.556648      40.140671      118.05562      1421.3511      301.54312      8408.4753      10470.571      162227.07     -241396.67     -68699.034    
      9500   40.556648      40.140671      118.05562      1354.7767      294.58873      8212.423       10336.638      162389.12     -241397.54     -68671.79     
     10000   40.556648      40.140671      118.05562      1392.759       301.03013      8390.7963      10379.665      162250.95     -241402.67     -68772.054    
     10500   40.556648      40.140671      118.05562      1131.2701      304.96522      8501.9895      10186.7        162475.71     -241403.75     -68741.338    
     11000   40.556648      40.140671      118.05562      1491.1592      302.73602      8440.9853      10483.386      162307.46     -241392.34     -68601.496    
     11500   40.556648      40.140671      118.05562      1074.7013      301.74563      8412.7526      10163.358      162586.61     -241411.56     -68661.598    
     12000   40.556648      40.140671      118.05562      1352.7571      301.81021      8419.5572      10427.031      162377.91     -241403.72     -68598.777    
     12500   40.556648      40.140671      118.05562      853.60231      299.89959      8364.6723      10052.116      162759.37     -241376.49     -68564.999    
     13000   40.556648      40.140671      118.05562      983.97649      296.42765      8266.1835      10210.79       162584.64     -241389.65     -68594.221    
     13500   40.556648      40.140671      118.05562      598.3748       300.38191      8382.1674      9952.5067      162820.79     -241393.72     -68620.427    
     14000   40.556648      40.140671      118.05562      792.22362      298.57492      8331.5797      10094.46       162900.84     -241392.64     -68397.341    
     14500   40.556648      40.140671      118.05562      246.38121      296.66005      8284.8711      9736.8723      163211.44     -241391.37     -68443.055    
     15000   40.556648      40.140671      118.05562      275.69158      295.42417      8242.7907      9909.136       163003.59     -241402.95     -68490.217    
     15500   40.556648      40.140671      118.05562      66.897486      302.66945      8441.611       9712.456       163398.39     -241374.25     -68263.406    
     16000   40.556648      40.140671      118.05562      262.16992      301.20952      8398.0465      9918.2617      163074.16     -241372.72     -68380.299    
     16500   40.556648      40.140671      118.05562      317.66102      298.99092      8336.9201      9994.681       163014.55     -241386.41     -68377.18     
     17000   40.556648      40.140671      118.05562      224.31727      296.99544      8279.6843      9859.471       163403.53     -241383.65     -68120.649    
     17500   40.556648      40.140671      118.05562     -8.9166407      303.52771      8460.4269      9723.3077      163414.59     -241387.88     -68249.982    
     18000   40.556648      40.140671      118.05562      28.850107      299.19479      8339.6249      9725.2704      163516.58     -241379.13     -68137.277    
     18500   40.556648      40.140671      118.05562     -100.29336      306.14008      8533.2815      9698.0256      163411.85     -241384.48     -68274.604    
     19000   40.556648      40.140671      118.05562      108.30547      300.29713      8370.376       9827.2062      163393.29     -241381.14     -68160.644    
     19500   40.556648      40.140671      118.05562     -9.8101245      294.91797      8220.7559      9701.7825      163623.45     -241384.11     -68058.877    
     20000   40.556648      40.140671      118.05562      72.343151      299.64357      8352.6091      9816.0473      163216.02     -241401.13     -68369.06     
     20500   40.556648      40.140671      118.05562      265.57684      303.92876      8471.8332      9987.9529      162990.67     -241365.23     -68386.606    
     21000   40.556648      40.140671      118.05562      272.68551      301.87923      8415.9594      9953.4823      163124.44     -241391.84     -68313.92     
     21500   40.556648      40.140671      118.05562      161.52728      299.25206      8343.4132      9778.9674      163308.5      -241403.76     -68316.288    
     22000   40.556648      40.140671      118.05562      419.02026      296.06054      8255.9084      9962.8827      163213.53     -241407.54     -68231.121    
     22500   40.556648      40.140671      118.05562      252.20879      299.85726      8361.8227      9772.1286      163294.22     -241386.68     -68320.337    
     23000   40.556648      40.140671      118.05562      740.46906      300.58103      8383.3575      10165.911      162963.76     -241382.02     -68252.355    
     23500   40.556648      40.140671      118.05562      608.61002      301.18344      8399.519       10019.778      162976.82     -241359.07     -68362.467    
     24000   40.556648      40.140671      118.05562      695.1974       302.00469      8418.983       10025.466      163108.88     -241380.79     -68246.45     
     24500   40.556648      40.140671      118.05562      788.8371       302.54939      8435.4974      10207.384      162548.4      -241394.02     -68638.244    
     25000   40.556648      40.140671      118.05562      733.06404      299.07866      8339.1172      10061.362      162922.46     -241405.01     -68421.181    
     25500   40.556648      40.140671      118.05562      958.90091      297.25106      8287.2109      10291.764      162484.54     -241395.98     -68619.682    
     26000   40.556648      40.140671      118.05562      1048.0568      301.73305      8410.7638      10283.046      162660.78     -241401.98     -68458.155    
     26500   40.556648      40.140671      118.05562      813.02265      299.57191      8350.363       10097.644      162796.54     -241393.45     -68499.27     
     27000   40.556648      40.140671      118.05562      889.68511      299.96737      8361.4242      10178.349      162581.89     -241393.34     -68633.103    
     27500   40.556648      40.140671      118.05562      794.25518      305.73193      8521.8722      9974.015       162924.35     -241395.66     -68497.287    
     28000   40.556648      40.140671      118.05562      1039.2752      304.40498      8487.3353      10210.227      162725.23     -241397.34     -68461.874    
     28500   40.556648      40.140671      118.05562      807.34973      297.80297      8300.8534      10056.256      162780.16     -241401.02     -68564.595    
     29000   40.556648      40.140671      118.05562      714.78774      303.34616      8455.4333      10003.376      162738.93     -241404.89     -68662.58     
     29500   40.556648      40.140671      118.05562      585.1742       298.74918      8328.022       9947.0781      162977.97     -241411.31     -68486.26     
     30000   40.556648      40.140671      118.05562      592.50726      292.52276      8154.2581      9912.9009      163155.37     -241397.05     -68328.782    
     30500   40.556648      40.140671      118.05562      565.04009      298.63329      8325.6591      9938.9674      162909.18     -241372.37     -68524.219    
     31000   40.556648      40.140671      118.05562      445.9327       299.52041      8350.4136      9824.8149      163174.51     -241397.08     -68397.756    
     31500   40.556648      40.140671      118.05562      748.12465      297.32687      8291.1899      10211.928      162555.12     -241394.95     -68627.904    
     32000   40.556648      40.140671      118.05562      595.69321      298.95849      8335.4165      9989.0932      162923.83     -241391.9      -68478.981    
     32500   40.556648      40.140671      118.05562      416.18357      302.31834      8427.4369      9824.0806      163322.02     -241397.97     -68251.869    
     33000   40.556648      40.140671      118.05562      495.00302      299.83055      8357.5002      9950.4934      163194.62     -241394.79     -68249.674    
     33500   40.556648      40.140671      118.05562      453.8463       296.37733      8261.9647      9796.8672      163558.78     -241384.29     -68028.64     
     34000   40.556648      40.140671      118.05562      299.75159      299.80638      8356.6995      9794.7277      163255.72     -241398.62     -68348.167    
     34500   40.556648      40.140671      118.05562      253.08039      296.79607      8272.8108      9809.0279      163241.79     -241396.65     -68345.827    
     35000   40.556648      40.140671      118.05562      246.74853      298.08068      8308.6674      9881.2028      163075.4      -241385.29     -68428.684    
     35500   40.556648      40.140671      118.05562      362.64802      303.43579      8457.9737      9967.9397      163017.83     -241386.47     -68400.698    
     36000   40.556648      40.140671      118.05562      583.36486      300.96875      8389.1864      10140.291      162799.06     -241399.01     -68459.655    
     36500   40.556648      40.140671      118.05562      348.67738      300.17215      8367.1691      9877.0708      163101.87     -241393.85     -68414.902    
     37000   40.556648      40.140671      118.05562      381.83329      301.36526      8400.4696      9859.2852      163098.61     -241393.46     -68435.565    
     37500   40.556648      40.140671      118.05562      314.42405      301.557        8405.7807      9827.93        163178.41     -241408.13     -68401.79     
     38000   40.556648      40.140671      118.05562      464.80482      300.02767      8362.8737      9984.7852      163025.17     -241405.25     -68395.291    
     38500   40.556648      40.140671      118.05562      351.75986      297.82887      8301.9071      9909.8597      163049.72     -241389.11     -68429.539    
     39000   40.556648      40.140671      118.05562      410.07899      304.27961      8481.3992      9883.1507      163271.92     -241375.15     -68220.074    
     39500   40.556648      40.140671      118.05562      452.79991      300.25646      8370.34        9970.5657      163046.14     -241379.07     -68362.368    
     40000   40.556648      40.140671      118.05562      452.10967      297.98913      8306.6872      9898.6203      163194.78     -241384.47     -68291.064    
     40500   40.556648      40.140671      118.05562      419.09859      301.06855      8392.9315      9888.1648      163096.49     -241397.73     -68413.078    
     41000   40.556648      40.140671      118.05562      532.61181      304.48189      8487.1326      10000.33       162943.17     -241372.32     -68428.816    
     41500   40.556648      40.140671      118.05562      618.75697      300.3552       8372.2559      10055.97       162955.49     -241363.78     -68352.322    
     42000   40.556648      40.140671      118.05562      459.97526      299.43274      8346.274       9893.1333      163159.81     -241403.95     -68351.009    
     42500   40.556648      40.140671      118.05562      789.48201      299.99592      8362.0479      10191.086      162709.06     -241418.87     -68518.722    
     43000   40.556648      40.140671      118.05562      604.19311      302.21955      8424.048       10055.791      162803        -241389.24     -68530.45     
     43500   40.556648      40.140671      118.05562      472.25587      302.97579      8445.0157      9930.2308      162970.47     -241391.99     -68491.281    
     44000   40.556648      40.140671      118.05562      642.42724      304.11298      8476.7145      10043.752      162941.79     -241376.08     -68390.536    
     44500   40.556648      40.140671      118.05562      500.69064      297.27156      8286.061       9897.1663      163158.53     -241383.65     -68327.959    
     45000   40.556648      40.140671      118.05562      594.75337      302.38411      8428.5223      9983.3343      162964.77     -241391.35     -68443.243    
     45500   40.556648      40.140671      118.05562      583.36231      301.89051      8414.7817      9973.6369      162905.94     -241397.04     -68517.465    
     46000   40.556648      40.140671      118.05562      684.77757      302.48317      8431.3331      10058.676      162890.22     -241395.18     -68446.291    
     46500   40.556648      40.140671      118.05562      602.40778      301.84907      8413.6592      9902.9567      163244.53     -241394.38     -68246.889    
     47000   40.556648      40.140671      118.05562      228.4288       302.78402      8439.6827      9712.9668      163282.58     -241405.09     -68409.548    
     47500   40.556648      40.140671      118.05562      665.59811      297.95473      8305.7035      10016.557      163026.11     -241393.14     -68350.475    
     48000   40.556648      40.140671      118.05562      647.10816      298.81052      8328.9165      10041.491      162715.24     -241397.83     -68641.101    
     48500   40.556648      40.140671      118.05562      741.19925      305.21959      8508.0578      10084.155      162835.63     -241375.23     -68455.44     
     49000   40.556648      40.140671      118.05562      633.17608      301.06026      8391.623       10058.284      162734.8      -241392.4      -68599.316    
     49500   40.556648      40.140671      118.05562      706.38802      297.50594      8293.4088      10071.879      162838.76     -241376.61     -68465.973    
     50000   40.556648      40.140671      118.05562      688.84908      297.37113      8289.981       10089.445      162795.71     -241411.24     -68526.087    
     50500   40.556648      40.140671      118.05562      510.97234      300.55819      8377.6328      9973.1344      162757.37     -241387        -68656.492    
     51000   40.556648      40.140671      118.05562      293.84784      297.48342      8292.5318      9700.1249      163320.16     -241381.1      -68360.813    
     51500   40.556648      40.140671      118.05562      511.04371      298.10774      8309.3705      9966.7347      163078.11     -241380.55     -68335.699    
     52000   40.556648      40.140671      118.05562      618.06713      297.71343      8298.5209      9906.5855      163384.94     -241382.78     -68091.255    
     52500   40.556648      40.140671      118.05562      387.55897      302.72311      8438.6678      9785.8362      163422.97     -241396.63     -68187.82     
     53000   40.556648      40.140671      118.05562      648.24453      298.77981      8328.0695      10085.339      162968.55     -241411.97     -68358.086    
     53500   40.556648      40.140671      118.05562      505.85147      298.76919      8328.0747      9866.1403      163477.36     -241394.09     -68050.588    
     54000   40.556648      40.140671      118.05562      253.60794      305.6933       8521.2127      9680.6315      163439.16     -241371.53     -68251.742    
     54500   40.556648      40.140671      118.05562      570.34291      294.65368      8213.1603      10065.96       162835.52     -241395.04     -68493.558    
     55000   40.556648      40.140671      118.05562      532.68919      300.45824      8374.9476      9899.5555      163217.42     -241385.54     -68268.564    
     55500   40.556648      40.140671      118.05562      619.79596      299.56054      8349.8755      10029.248      163016        -241402.68     -68357.433    
     56000   40.556648      40.140671      118.05562      395.23446      300.38093      8372.6903      9902.4797      163076.85     -241364.58     -68385.259    
     56500   40.556648      40.140671      118.05562      390.95277      303.34541      8455.3702      9775.2039      163373.62     -241384.01     -68235.191    
     57000   40.556648      40.140671      118.05562      412.27809      303.59987      8462.7701      9880.6303      163139.14     -241387.14     -68367.372    
     57500   40.556648      40.140671      118.05562      533.69724      295.5143       8237.1532      9994.4928      163098.47     -241392.04     -68299.081    
     58000   40.556648      40.140671      118.05562      340.44918      299.0088       8334.5372      9833.6609      163122.62     -241400.05     -68443.77     
     58500   40.556648      40.140671      118.05562      489.67315      299.78754      8356.1963      9909.9687      163094.27     -241402.87     -68398.638    
     59000   40.556648      40.140671      118.05562      565.49922      301.10246      8392.9191      10031.237      162829.52     -241395.47     -68534.719    
     59500   40.556648      40.140671      118.05562      358.30855      300.78603      8383.976       9732.8755      163302.08     -241381.7      -68346.736    
     60000   40.556648      40.140671      118.05562      666.88683      301.8203       8413.1079      10045.285      163063.96     -241376.37     -68267.122    
     60500   40.556648      40.140671      118.05562      400.6735       300.00954      8362.4843      9897.2459      163132.89     -241396.71     -68366.582    
     61000   40.556648      40.140671      118.05562      902.44929      301.95247      8416.8498      10228.612      162796.43     -241387.29     -68362.254    
     61500   40.556648      40.140671      118.05562      701.66721      297.70986      8298.3085      10087.857      162833.07     -241390.43     -68469.501    
     62000   40.556648      40.140671      118.05562      711.5173       297.4424       8291.0571      9972.1749      163206.1      -241386.08     -68207.81     
     62500   40.556648      40.140671      118.05562      748.10964      298.30979      8314.9964      10017.187      163128.03     -241391.5      -68246.28     
     63000   40.556648      40.140671      118.05562      674.73676      300.93469      8388.1466      9956.8154      163150.37     -241411.18     -68303.993    
     63500   40.556648      40.140671      118.05562      616.91749      300.11416      8366.2669      10095.892      162787.13     -241403.21     -68520.194    
     64000   40.556648      40.140671      118.05562      630.47212      299.28565      8342.2736      9977.1939      163003.49     -241393.91     -68413.225    
     64500   40.556648      40.140671      118.05562      542.80522      298.5544       8322.0776      9965.3304      163032.99     -241379.12     -68380.802    
     65000   40.556648      40.140671      118.05562      627.04067      299.9          8359.3506      10098.625      162793.6      -241399.68     -68507.451    
     65500   40.556648      40.140671      118.05562      552.51912      299.87808      8358.6785      9951.5113      163049.15     -241379.13     -68378.462    
     66000   40.556648      40.140671      118.05562      449.98932      298.09819      8309.0985      10025.859      162750.87     -241404.57     -68627.832    
     66500   40.556648      40.140671      118.05562      556.42843      300.49239      8375.8501      10064.361      162751.77     -241384.58     -68568.446    
     67000   40.556648      40.140671      118.05562      450.29307      297.75877      8299.6063      9920.6544      163148.27     -241378.47     -68309.545    
     67500   40.556648      40.140671      118.05562      792.56742      301.75363      8411.0241      10141.827      163015.91     -241385.53     -68227.796    
     68000   40.556648      40.140671      118.05562      633.22518      298.78409      8328.2337      9966.1875      163212.16     -241374.07     -68195.716    
     68500   40.556648      40.140671      118.05562      477.95207      302.29223      8426.1819      9951.1364      163027.11     -241366.13     -68387.884    
     69000   40.556648      40.140671      118.05562      394.43196      303.84877      8469.3835      9901.4015      162939.21     -241388.25     -68547.639    
     69500   40.556648      40.140671      118.05562      763.90142      299.27293      8341.801       10113.748      163060.43     -241383.26     -68209.079    
     70000   40.556648      40.140671      118.05562      711.20401      299.75355      8355.1969      10058.331      163048.01     -241393.23     -68286.894    
     70500   40.556648      40.140671      118.05562      630.94263      299.16233      8338.7329      10107.294      162881.13     -241402.79     -68414.371    
     71000   40.556648      40.140671      118.05562      554.15537      297.49513      8292.8707      9947.1561      163179.15     -241402.84     -68276.535    
     71500   40.556648      40.140671      118.05562      583.22592      297.34784      8288.1591      10058.963      162807.61     -241393.04     -68526.463    
     72000   40.556648      40.140671      118.05562      372.69642      301.567        8405.7747      9860.7244      163010.87     -241389.1      -68517.505    
     72500   40.556648      40.140671      118.05562      595.51933      300.90734      8387.7019      9960.085       163235.9      -241376.54     -68180.559    
     73000   40.556648      40.140671      118.05562      381.18816      301.00987      8390.2151      9941.5643      162831.15     -241377.01     -68604.296    
     73500   40.556648      40.140671      118.05562      402.34661      296.21932      8256.768       9861.4907      163043.54     -241393.95     -68488.92     
     74000   40.556648      40.140671      118.05562      371.53127      303.58186      8461.913       9830.2983      163097.89     -241381.35     -68453.168    
     74500   40.556648      40.140671      118.05562      508.42803      302.18462      8423.4442      9868.1236      163224.96     -241400.98     -68307.898    
     75000   40.556648      40.140671      118.05562      603.22909      300.27988      8372.6915      9998.4936      162928.26     -241385.07     -68458.317    
     75500   40.556648      40.140671      118.05562      496.71282      301.93731      8417.4822      9823.6887      163302.89     -241393.7      -68267.116    
     76000   40.556648      40.140671      118.05562      731.62226      301.71705      8410.1678      10024.199      163027.18     -241393.93     -68342.552    
     76500   40.556648      40.140671      118.05562      757.94917      300.78627      8384.3231      10073.781      162924.87     -241399.58     -68400.926    
     77000   40.556648      40.140671      118.05562      783.64626      300.09365      8365.7889      10117.174      162910.41     -241386.7      -68359.11     
     77500   40.556648      40.140671      118.05562      511.63325      301.29841      8398.2955      9930.3772      162987.82     -241389.05     -68470.854    
     78000   40.556648      40.140671      118.05562      669.95599      297.38914      8290.3301      10127.666      162696.14     -241389.09     -68565.29     
     78500   40.556648      40.140671      118.05562      728.75979      297.97395      8305.7474      10128.368      162802.05     -241389.36     -68458.95     
     79000   40.556648      40.140671      118.05562      609.45628      299.21073      8340.1863      9953.4693      163101.49     -241391.77     -68336.809    
     79500   40.556648      40.140671      118.05562      503.70525      300.44688      8374.8644      9857.7273      163208.94     -241397.1      -68330.442    
     80000   40.556648      40.140671      118.05562      589.1204       299.796        8356.569       9995.1892      163020.05     -241394.72     -68379.484    
     80500   40.556648      40.140671      118.05562      615.05334      297.10629      8282.1611      9929.6622      163159.18     -241377.84     -68288.995    
     81000   40.556648      40.140671      118.05562      551.73046      301.5872       8406.4625      9836.7866      163392.56     -241391.94     -68162.594    
     81500   40.556648      40.140671      118.05562      546.00672      302.14492      8421.873       9993.7439      163020.48     -241403.67     -68389.448    
     82000   40.556648      40.140671      118.05562      571.24215      301.18628      8395.4855      9999.1295      162993.56     -241381.32     -68388.631    
     82500   40.556648      40.140671      118.05562      261.28419      296.61141      8268.2153      9718.6123      163295.5      -241381.55     -68367.438    
     83000   40.556648      40.140671      118.05562      507.58977      299.34921      8344.0381      9999.8516      162900.64     -241389.43     -68488.934    
     83500   40.556648      40.140671      118.05562      461.04497      298.2653       8313.7354      9921.4291      163022.31     -241371.24     -68427.498    
     84000   40.556648      40.140671      118.05562      682.15576      303.95932      8472.4328      10048.966      163059.01     -241396.45     -68288.476    
     84500   40.556648      40.140671      118.05562      337.85885      300.97292      8389.5368      9863.5003      162928.4      -241385.69     -68593.796    
     85000   40.556648      40.140671      118.05562      481.75143      302.44401      8430.3422      9879.8729      163204.6      -241397.73     -68313.256    
     85500   40.556648      40.140671      118.05562      509.94614      296.31443      8259.7992      9973.4134      163034.58     -241389.1      -68381.102    
     86000   40.556648      40.140671      118.05562      519.51631      299.9449       8361.1736      9879.4574      163317.08     -241362.38     -68165.849    
     86500   40.556648      40.140671      118.05562      362.05627      300.9618       8389.9488      9887.8225      163144.15     -241394.65     -68362.673    
     87000   40.556648      40.140671      118.05562      715.34778      300.82322      8385.1683      10189.542      162708.55     -241394.65     -68496.564    
     87500   40.556648      40.140671      118.05562      714.33974      299.16234      8338.8801      10211.569      162706.14     -241398.63     -68480.924    
     88000   40.556648      40.140671      118.05562      497.12736      301.07542      8392.0901      9999.0472      162955.39     -241399.89     -68445.461    
     88500   40.556648      40.140671      118.05562      450.87292      294.1136       8198.3511      10071.548      162742.94     -241406.64     -68592.153    
     89000   40.556648      40.140671      118.05562      392.39228      302.79666      8440.1741      9962.0537      162930.83     -241398.05     -68505.165    
     89500   40.556648      40.140671      118.05562      405.3653       299.24379      8341.2127      9950.0596      163141.04     -241396.86     -68305.762    
     90000   40.556648      40.140671      118.05562      425.65619      299.08025      8336.466       9867.1943      163143.16     -241396.76     -68386.401    
     90500   40.556648      40.140671      118.05562      500.28737      300.00343      8362.7373      9952.0324      163031.82     -241376.45     -68392.604    
     91000   40.556648      40.140671      118.05562      441.18826      300.50192      8376.0591      9931.8714      162971.68     -241378.14     -68474.588    
     91500   40.556648      40.140671      118.05562      515.15112      300.75414      8383.1078      9905.7714      163155.57     -241387.14     -68325.799    
     92000   40.556648      40.140671      118.05562      645.18843      299.68163      8353.2031      10085.654      162669.79     -241388.02     -68632.576    
     92500   40.556648      40.140671      118.05562      474.11171      304.2099       8479.5692      9913.334       163083.42     -241392.53     -68395.771    
     93000   40.556648      40.140671      118.05562      650.3547       300.31409      8370.8442      10044.079      163048.81     -241408.59     -68315.702    
     93500   40.556648      40.140671      118.05562      451.12877      299.3129       8343.2119      9924.6267      163013.3      -241391.91     -68453.984    
     94000   40.556648      40.140671      118.05562      724.02289      298.35368      8316.8502      10153.82       162831.55     -241391.7      -68406.329    
     94500   40.556648      40.140671      118.05562      408.92412      301.39589      8401.1311      9812.3223      163177.28     -241401.87     -68412.262    
     95000   40.556648      40.140671      118.05562      953.60844      301.81756      8412.7282      10227.334      162783.46     -241376.38     -68365.587    
     95500   40.556648      40.140671      118.05562      685.45761      298.94457      8332.7873      10019.902      162964.2      -241385.09     -68400.991    
     96000   40.556648      40.140671      118.05562      428.93354      298.29782      8314.9012      9878.1829      163165.65     -241382.47     -68338.633    
     96500   40.556648      40.140671      118.05562      649.27208      299.28366      8342.1201      10045.222      163033.63     -241387.57     -68308.722    
     97000   40.556648      40.140671      118.05562      573.75209      299.71034      8354.0729      10011.26       162969.95     -241392.81     -68411.605    
     97500   40.556648      40.140671      118.05562      648.83161      299.88454      8358.8497      10028.618      163098.66     -241374.44     -68247.167    
     98000   40.556648      40.140671      118.05562      447.12633      296.62809      8268.9446      9872.3902      163137.7      -241387.61     -68377.519    
     98500   40.556648      40.140671      118.05562      581.74982      302.83495      8441.1268      9994.8286      162981.24     -241381.96     -68405.891    
     99000   40.556648      40.140671      118.05562      714.91598      303.27972      8454.4955      10060.996      163044.38     -241371.63     -68266.257    
     99500   40.556648      40.140671      118.05562      702.09755      299.78691      8356.1832      10002.796      163241.94     -241379.63     -68134.887    
    100000   40.556648      40.140671      118.05562      585.15005      299.50998      8348.4177      9956.8326      163103.19     -241386.87     -68326.844    
    100500   40.556648      40.140671      118.05562      646.86842      305.55718      8517.2517      10049.776      162941.63     -241400.5      -68409.093    
    101000   40.556648      40.140671      118.05562      660.09093      301.38943      8401.3287      10018.99       163122.79     -241378.19     -68236.404    
    101500   40.556648      40.140671      118.05562      473.88292      300.67767      8381.0986      9998.3553      162937.55     -241397.82     -68461.916    
    102000   40.556648      40.140671      118.05562      565.89619      297.93274      8304.7279      9856.4668      163377.95     -241369.54     -68135.126    
    102500   40.556648      40.140671      118.05562      584.03321      299.47166      8347.3416      10042.294      162957.53     -241392.76     -68392.939    
    103000   40.556648      40.140671      118.05562      362.38179      297.50006      8293.5081      9848.1185      163241.02     -241388.39     -68299.252    
    103500   40.556648      40.140671      118.05562      646.93833      302.47661      8431.2153      10010.78       163088.13     -241360.97     -68262.057    
    104000   40.556648      40.140671      118.05562      582.94389      299.24373      8341.0734      9957.4803      163253.52     -241388.59     -68177.589    
    104500   40.556648      40.140671      118.05562      372.83848      302.05651      8419.4264      9830.8336      163167.51     -241392.42     -68394.08     
    105000   40.556648      40.140671      118.05562      500.28731      301.72139      8410.0476      10071.261      162796.44     -241383.32     -68515.614    
    105500   40.556648      40.140671      118.05562      490.05167      295.65319      8240.9361      9972.4449      162998.11     -241367.16     -68396.61     
    106000   40.556648      40.140671      118.05562      551.12374      302.19274      8423.547       10090.417      162740.5      -241399.66     -68568.751    
    106500   40.556648      40.140671      118.05562      550.81075      300.04191      8363.3958      10040.618      162967.15     -241391.08     -68383.312    
    107000   40.556648      40.140671      118.05562      547.82883      300.84195      8385.6977      9981.6063      163026.67     -241370.77     -68362.496    
    107500   40.556648      40.140671      118.05562      448.09456      302.35501      8427.7951      9885.0475      163230.13     -241387.12     -68271.945    
    108000   40.556648      40.140671      118.05562      679.19847      300.21907      8368.2959      10166.322      162850.77     -241398.07     -68380.979    
    108500   40.556648      40.140671      118.05562      643.90584      301.35906      8399.9543      10038.497      162987.22     -241396.13     -68370.413    
    109000   40.556648      40.140671      118.05562      784.66443      295.79629      8244.9008      10122.401      163028.15     -241402.74     -68252.182    
    109500   40.556648      40.140671      118.05562      394.561        298.08033      8308.7459      9819.8536      163258.31     -241394.64     -68316.481    
    110000   40.556648      40.140671      118.05562      477.1609       302.4081       8429.1905      9982.2845      162929.87     -241401.42     -68489.264    
    110500   40.556648      40.140671      118.05562      528.79436      299.98913      8362.1999      9997.177       163030.66     -241388.91     -68361.077    
    111000   40.556648      40.140671      118.05562      878.19963      298.93644      8332.4606      10256.108      162775.47     -241411.15     -68379.579    
    111500   40.556648      40.140671      118.05562      786.42076      299.81449      8357.2272      10176.627      162903.44     -241389.36     -68309.293    
    112000   40.556648      40.140671      118.05562      511.06056      304.5713       8489.691       9989.7235      162895.73     -241387.97     -68502.511    
    112500   40.556648      40.140671      118.05562      708.35041      301.92882      8415.8431      10081.148      163088.93     -241385.06     -68214.979    
    113000   40.556648      40.140671      118.05562      470.59556      303.71902      8465.8973      9834.1357      163254.21     -241378.19     -68289.846    
    113500   40.556648      40.140671      118.05562      781.31064      296.57224      8266.596       10134.867      163011.15     -241407.99     -68261.974    
    114000   40.556648      40.140671      118.05562      473.1558       297.30999      8287.091       9904.3709      163179.76     -241397.53     -68313.401    
    114500   40.556648      40.140671      118.05562      636.20291      299.94675      8360.5907      9992.4771      163203.54     -241405.06     -68209.046    
    115000   40.556648      40.140671      118.05562      401.42491      301.71143      8409.9845      9835.1909      163237.08     -241375.62     -68303.347    
    115500   40.556648      40.140671      118.05562      479.95691      298.74333      8327.9533      9852.8161      163429.53     -241382.74     -68100.391    
    116000   40.556648      40.140671      118.05562      390.81826      300.42259      8374.2738      9876.7511      163183.76     -241392.74     -68332.232    
    116500   40.556648      40.140671      118.05562      361.43921      301.25327      8397.024       9864.4144      163182.79     -241389.88     -68342.666    
    117000   40.556648      40.140671      118.05562      519.7527       300.22802      8368.638       10012.393      163030.07     -241391.23     -68348.771    
    117500   40.556648      40.140671      118.05562      424.0412       297.63229      8296.4297      9904.4394      163177.07     -241381.48     -68299.963    
    118000   40.556648      40.140671      118.05562      475.33387      303.45616      8460.124       9832.0358      163341.67     -241388.96     -68215.255    
    118500   40.556648      40.140671      118.05562      416.10313      298.71876      8327.8157      9961.4862      162949.44     -241389.81     -68478.888    
    119000   40.556648      40.140671      118.05562      424.53415      298.18254      8314.5131      9907.8803      163069.6      -241386.66     -68409.187    
    119500   40.556648      40.140671      118.05562      689.84633      299.64364      8352.1472      10098.919      162827.02     -241373.46     -68447.518    
    120000   40.556648      40.140671      118.05562      690.67497      299.99308      8362.1498      10120.145      162760.63     -241387.74     -68506.963    
    120500   40.556648      40.140671      118.05562      649.46661      297.25167      8285.6947      10033.327      162920.14     -241379.32     -68425.855    
    121000   40.556648      40.140671      118.05562      462.08915      297.50726      8292.5981      9878.4451      162991.6      -241385.33     -68515.292    
    121500   40.556648      40.140671      118.05562      712.87479      302.50476      8432.5182      10127.048      162636.54     -241420.49     -68656.903    
    122000   40.556648      40.140671      118.05562      675.2119       299.55528      8349.6834      9993.4933      163055.81     -241394.64     -68345.34     
    122500   40.556648      40.140671      118.05562      583.21353      299.04407      8335.4216      9993.2013      162922.68     -241397.68     -68481.803    
    123000   40.556648      40.140671      118.05562      544.4961       302.22313      8424.1221      9967.7495      163015.31     -241390.12     -68407.058    
    123500   40.556648      40.140671      118.05562      673.82524      299.80421      8356.6355      10133.651      162682.84     -241387.31     -68570.827    
    124000   40.556648      40.140671      118.05562      662.18069      300.73366      8382.5216      10154.417      162636.47     -241395.29     -68604.401    
    124500   40.556648      40.140671      118.05562      601.16885      301.26894      8397.523       10047.643      162865.24     -241388.92     -68476.031    
    125000   40.556648      40.140671      118.05562      439.57983      302.21615      8423.9284      9961.6165      162806.74     -241392.91     -68624.551    
    125500   40.556648      40.140671      118.05562      799.5536       301.04863      8391.9633      10121.839      162962.38     -241394.41     -68310.19     
    126000   40.556648      40.140671      118.05562      730.27936      298.21468      8312.4596      10084.589      162943.19     -241374.83     -68347.053    
    126500   40.556648      40.140671      118.05562      502.705        296.98534      8278.0819      9989.556       162932.87     -241374.11     -68451.691    
    127000   40.556648      40.140671      118.05562      263.55542      301.76262      8411.4153      9753.2926      163169.37     -241397.96     -68475.303    
    127500   40.556648      40.140671      118.05562      479.32546      300.41467      8373.792       9922.3045      163152.62     -241398        -68323.075    
    128000   40.556648      40.140671      118.05562      408.90695      302.1177       8421.1826      9830.91        163115.04     -241373.68     -68427.73     
    128500   40.556648      40.140671      118.05562      514.4168       300.87857      8386.7302      9962.9028      163074.99     -241393.81     -68355.918    
    129000   40.556648      40.140671      118.05562      452.2335       296.50509      8264.7733      9936.5017      163030.2      -241382.65     -68415.952    
    129500   40.556648      40.140671      118.05562      533.21363      296.05365      8252.7169      9971.0894      163012.62     -241392.48     -68408.769    
    130000   40.556648      40.140671      118.05562      482.06876      301.22008      8396.2716      10007.869      162917.27     -241403.24     -68478.1      
    130500   40.556648      40.140671      118.05562      598.16655      296.74002      8271.2475      10070.608      162986.31     -241395.85     -68338.935    
    131000   40.556648      40.140671      118.05562      741.79215      299.0246       8334.9188      10133.871      162968.85     -241391.21     -68288.485    
    131500   40.556648      40.140671      118.05562      579.46939      301.05477      8391.7872      10026.068      163026.28     -241365.35     -68313.004    
    132000   40.556648      40.140671      118.05562      496.33654      296.73165      8271.4743      10055.529      162934.45     -241381.48     -68391.502    
    132500   40.556648      40.140671      118.05562      670.70153      302.85533      8441.6656      10084.088      163046.81     -241378.93     -68248.04     
    133000   40.556648      40.140671      118.05562      433.65116      299.87612      8358.7378      9942.2042      163035.31     -241399        -68421.491    
    133500   40.556648      40.140671      118.05562      549.94971      300.08622      8364.7129      9965.5678      163166.97     -241401.13     -68268.596    
    134000   40.556648      40.140671      118.05562      502.18488      297.01447      8279.1622      9999.0167      163011.18     -241387.5      -68377.302    
    134500   40.556648      40.140671      118.05562      324.85463      300.66409      8380.6349      9766.772       163321.65     -241380.7      -68292.271    
    135000   40.556648      40.140671      118.05562      405.25681      300.63196      8379.8635      9881.943       163146.63     -241372.99     -68344.415    
    135500   40.556648      40.140671      118.05562      583.92141      301.24754      8396.9906      10090.82       162857.25     -241382        -68433.928    
    136000   40.556648      40.140671      118.05562      706.96707      293.95305      8195.7989      10190.41       162843.14     -241383.59     -68350.044    
    136500   40.556648      40.140671      118.05562      542.76281      299.56284      8349.9204      10008.46       162996.72     -241383.07     -68377.891    
    137000   40.556648      40.140671      118.05562      454.41379      301.94861      8416.4094      9982.0721      162956.54     -241386.67     -68448.05     
    137500   40.556648      40.140671      118.05562      632.15577      300.85275      8385.8907      10013.346      163059.93     -241381.04     -68307.771    
    138000   40.556648      40.140671      118.05562      490.1959       299.41097      8345.9732      9982.7072      163125.48     -241423.02     -68314.826    
    138500   40.556648      40.140671      118.05562      452.68711      301.5711       8408.1279      9937.0685      163117.09     -241377.6      -68323.436    
    139000   40.556648      40.140671      118.05562      366.05149      304.41295      8486.3349      9837.4653      163144.99     -241383.55     -68401.091    
    139500   40.556648      40.140671      118.05562      550.18089      300.23439      8368.7099      10040.644      162925.85     -241381.41     -68414.914    
    140000   40.556648      40.140671      118.05562      469.66409      302.40761      8429.1972      9793.5         163484.26     -241400.39     -68122.627    
    140500   40.556648      40.140671      118.05562      576.52128      298.877        8330.7698      9982.9944      163050.2      -241390.4      -68357.202    
    141000   40.556648      40.140671      118.05562      709.28309      297.51227      8292.7337      10097.696      162962.46     -241389.08     -68328.93     
    141500   40.556648      40.140671      118.05562      565.87648      297.83652      8301.7895      9984.9711      163016.41     -241397.8      -68396.421    
    142000   40.556648      40.140671      118.05562      589.38847      301.17118      8394.7343      10060.5        162844.35     -241384.43     -68479.581    
    142500   40.556648      40.140671      118.05562      543.05462      303.15879      8450.1355      9908.8581      163076.17     -241395.29     -68410.262    
    143000   40.556648      40.140671      118.05562      798.10776      296.26832      8258.1007      10153.296      162845.28     -241392.07     -68393.489    
    143500   40.556648      40.140671      118.05562      905.21658      298.11181      8309.4829      10159.481      162977.05     -241393.99     -68257.458    
    144000   40.556648      40.140671      118.05562      424.36106      304.30598      8483.1184      9824.9812      163142.47     -241390        -68422.544    
    144500   40.556648      40.140671      118.05562      523.2824       297.75453      8299.494       9979.0471      163026.69     -241391.55     -68385.816    
    145000   40.556648      40.140671      118.05562      647.46419      299.37453      8345.1332      10057.272      162881.46     -241401.01     -68462.277    
    145500   40.556648      40.140671      118.05562      544.33193      299.40636      8345.5482      10016.869      162955.91     -241380.74     -68407.966    
    146000   40.556648      40.140671      118.05562      633.74346      295.87413      8247.3438      10057.457      162920.36     -241390.77     -68412.946    
    146500   40.556648      40.140671      118.05562      653.75788      297.31296      8287.3433      10014.388      162973.64     -241372.99     -68384.963    
    147000   40.556648      40.140671      118.05562      726.72833      296.04823      8252.1435      10073.418      163068.04     -241395.68     -68254.226    
    147500   40.556648      40.140671      118.05562      647.94148      300.63366      8379.8096      10119.796      162827.34     -241395.79     -68448.656    
    148000   40.556648      40.140671      118.05562      501.90271      302.06503      8419.8682      9873.1526      163306.55     -241382.56     -68202.863    
    148500   40.556648      40.140671      118.05562      697.90562      302.70993      8438.0352      10134.339      162899.73     -241395.45     -68361.375    
    149000   40.556648      40.140671      118.05562      490.40748      302.22244      8424.0251      9976.2869      162919.21     -241409.97     -68514.474    
    149500   40.556648      40.140671      118.05562      600.86883      301.31525      8399.1816      10042.495      163014.87     -241395.57     -68338.206    
    150000   40.556648      40.140671      118.05562      523.37655      297.19982      8284.4737      9915.546       163346.28     -241373.32     -68111.492    
    150500   40.556648      40.140671      118.05562      678.46799      301.5611       8405.8185      10124.781      162779.06     -241388.99     -68485.153    
    151000   40.556648      40.140671      118.05562      596.98705      301.3238       8398.9806      9949.1604      163173.42     -241385.23     -68262.645    
    151500   40.556648      40.140671      118.05562      404.44364      295.68294      8242.2676      9906.232       163177.09     -241389.12     -68305.797    
    152000   40.556648      40.140671      118.05562      467.95358      299.46074      8347.5908      9967.618       163085.95     -241396.67     -68343.106    
    152500   40.556648      40.140671      118.05562      416.06969      301.36411      8400.0922      9899.4514      163089.26     -241380.85     -68392.145    
    153000   40.556648      40.140671      118.05562      278.01416      301.42882      8402.3088      9766.8813      163148.24     -241377.28     -68462.159    
    153500   40.556648      40.140671      118.05562      384.17319      302.90921      8443.1568      9912.2345      163081.14     -241382.54     -68389.166    
    154000   40.556648      40.140671      118.05562      270.7898       299.57823      8350.3148      9773.2667      163223.16     -241396.92     -68400.486    
    154500   40.556648      40.140671      118.05562      398.55823      301.44866      8402.4844      9823.484       163294.59     -241387.06     -68268.993    
    155000   40.556648      40.140671      118.05562      184.73839      297.95956      8305.2031      9685.7384      163291.6      -241396.06     -68418.723    
    155500   40.556648      40.140671      118.05562      535.94601      300.99225      8390.0116      9970.152       163036.68     -241369.95     -68363.124    
    156000   40.556648      40.140671      118.05562      696.38068      298.91927      8332.1578      10184.772      162699.13     -241372.45     -68488.54     
    156500   40.556648      40.140671      118.05562      653.75276      298.00034      8306.3767      10012.881      163089.32     -241398.89     -68296.683    
    157000   40.556648      40.140671      118.05562      820.39493      295.74206      8243.9118      10174.85       162996.96     -241400.07     -68228.257    
    157500   40.556648      40.140671      118.05562      843.1557       296.58108      8267.0106      10142.544      162974.81     -241385.53     -68268.177    
    158000   40.556648      40.140671      118.05562      431.34297      299.44046      8347.9061      9862.6547      163100.52     -241393.7      -68430.53     
    158500   40.556648      40.140671      118.05562      663.16523      302.80573      8440.5513      9999.146       163213.96     -241375.72     -68162.608    
    159000   40.556648      40.140671      118.05562      432.58542      299.49634      8348.0338      9856.2362      163300.55     -241386.75     -68229.971    
    159500   40.556648      40.140671      118.05562      739.24935      297.4539       8293.5113      10050.467      163169.49     -241391.59     -68171.637    
    160000   40.556648      40.140671      118.05562      506.66083      295.35242      8232.5987      9959.931       163010.73     -241396.4      -68425.745    
    160500   40.556648      40.140671      118.05562      730.64399      294.21898      8201.699       10181.961      162849.8      -241382.45     -68350.695    
    161000   40.556648      40.140671      118.05562      631.28313      302.75247      8440.9212      9996.0296      163115.49     -241354.56     -68243.042    
    161500   40.556648      40.140671      118.05562      654.38421      295.98669      8250.3531      10082.219      162870.16     -241387.02     -68434.636    
    162000   40.556648      40.140671      118.05562      636.3726       302.40761      8430.4343      10108.291      162766.91     -241400.45     -68525.25     
    162500   40.556648      40.140671      118.05562      606.86592      301.14875      8394.0877      10051.415      162965.05     -241387.01     -68370.544    
    163000   40.556648      40.140671      118.05562      800.9944       301.01367      8390.6733      10238.404      162636.3      -241378.24     -68503.54     
    163500   40.556648      40.140671      118.05562      805.9498       299.66527      8352.9091      10152.346      162916.31     -241382.9      -68314.243    
    164000   40.556648      40.140671      118.05562      735.04059      297.21276      8284.4073      10160.146      162807.39     -241373.73     -68406.202    
    164500   40.556648      40.140671      118.05562      621.14438      300.02441      8362.7515      10190.107      162582.85     -241394.5      -68621.552    
    165000   40.556648      40.140671      118.05562      456.59333      303.12041      8449.8178      9971.5568      162941.59     -241365.42     -68452.279    
    165500   40.556648      40.140671      118.05562      481.77678      297.63353      8296.1047      9989.4025      162934.27     -241394.09     -68470.415    
    166000   40.556648      40.140671      118.05562      426.79187      303.68654      8465.12        9943.6261      162903.95     -241372.04     -68524.472    
    166500   40.556648      40.140671      118.05562      538.74227      304.32413      8482.5953      9999.0582      162970.12     -241404.14     -68434.963    
    167000   40.556648      40.140671      118.05562      547.66264      304.58729      8489.9549      9943.5506      163078.8      -241383.71     -68361.363    
    167500   40.556648      40.140671      118.05562      342.3921       301.80396      8412.4175      9807.0849      163359.12     -241389.15     -68222.941    
    168000   40.556648      40.140671      118.05562      485.53967      301.22883      8396.7966      9935.4932      163182.42     -241399.75     -68281.839    
    168500   40.556648      40.140671      118.05562      590.50357      296.27372      8258.3531      10011.173      163069.9      -241382.52     -68301.445    
    169000   40.556648      40.140671      118.05562      646.10156      304.76493      8495.4687      10135.613      162715.55     -241395.24     -68544.075    
    169500   40.556648      40.140671      118.05562      591.60767      301.87838      8414.5397      10001.252      162923.45     -241390.43     -68465.731    
    170000   40.556648      40.140671      118.05562      370.93778      302.40622      8429.2133      9765.8419      163375.36     -241392.74     -68251.541    
    170500   40.556648      40.140671      118.05562      444.62303      299.20738      8340.3718      9852.5389      163177.02     -241387.59     -68358.037    
    171000   40.556648      40.140671      118.05562      520.58964      299.76751      8356.1873      9821.7994      163441.18     -241383.11     -68120.136    
    171500   40.556648      40.140671      118.05562      549.08444      298.47923      8319.7626      10059.755      162779.59     -241386.01     -68546.665    
    172000   40.556648      40.140671      118.05562      450.26498      295.90797      8248.0342      9889.7458      163108.45     -241368.01     -68369.81     
    172500   40.556648      40.140671      118.05562      681.10884      302.56559      8433.6669      10089.351      162882.2      -241384.7      -68413.157    
    173000   40.556648      40.140671      118.05562      361.19237      298.35539      8316.253       9790.2599      163326.57     -241374.19     -68257.365    
    173500   40.556648      40.140671      118.05562      573.71985      298.2572       8313.8348      10010.805      162928.12     -241359.24     -68420.314    
    174000   40.556648      40.140671      118.05562      546.23367      300.01702      8362.6318      9903.5556      163078.79     -241386.28     -68403.936    
    174500   40.556648      40.140671      118.05562      619.01866      296.69933      8270.4205      9909.1715      163304.16     -241387.22     -68173.888    
    175000   40.556648      40.140671      118.05562      543.14528      299.89881      8359.2604      9916.5268      163018.86     -241394.22     -68458.831    
    175500   40.556648      40.140671      118.05562      891.43015      300.53883      8377.2333      10131.241      162996.66     -241387.94     -68260.041    
    176000   40.556648      40.140671      118.05562      642.93774      296.09109      8253.1839      10093.312      162810.4      -241395.97     -68492.26     
    176500   40.556648      40.140671      118.05562      454.60024      299.47543      8347.4938      9839.9971      163084.16     -241395.85     -68471.694    
    177000   40.556648      40.140671      118.05562      853.3361       302.37897      8428.4131      10136.483      162755.55     -241378.89     -68486.861    
    177500   40.556648      40.140671      118.05562      509.18779      304.43868      8486.762       9936.5073      163029.32     -241390.45     -68424.628    
    178000   40.556648      40.140671      118.05562      669.49477      300.22148      8368.3348      10057.41       162991        -241397.54     -68349.125    
    178500   40.556648      40.140671      118.05562      521.30589      298.73054      8326.6877      9966.8359      162909.51     -241381.14     -68504.789    
    179000   40.556648      40.140671      118.05562      588.64494      301.6096       8406.9585      9984.2905      162970.92     -241395.79     -68440.577    
    179500   40.556648      40.140671      118.05562      391.47457      303.8562       8469.6358      9888.7359      163069.07     -241386.42     -68428.609    
    180000   40.556648      40.140671      118.05562      589.20114      296.47969      8264.0513      9987.3559      163074.7      -241393.91     -68331.855    
    180500   40.556648      40.140671      118.05562      613.10446      301.12595      8393.464       10042.143      163082.74     -241378.03     -68253.151    
    181000   40.556648      40.140671      118.05562      574.78747      295.33219      8232.2385      10051.273      162966.8      -241373.6      -68355.532    
    181500   40.556648      40.140671      118.05562      587.39281      298.58977      8322.9215      10091.778      162868.64     -241384.56     -68424.147    
    182000   40.556648      40.140671      118.05562      691.48749      297.51757      8293.1874      10118.839      162978.39     -241375.48     -68278.243    
    182500   40.556648      40.140671      118.05562      523.2626       298.00591      8306.49        9954.7275      163124.7      -241408.95     -68329.521    
    183000   40.556648      40.140671      118.05562      483.0799       298.9871       8333.9095      9915.9518      163114.8      -241398.41     -68367.652    
    183500   40.556648      40.140671      118.05562      325.37912      298.49244      8320.1665      9860.4259      163071.93     -241382.84     -68450.481    
    184000   40.556648      40.140671      118.05562      341.05562      299.08951      8336.6943      9912.1136      162938.8      -241381.36     -68530.445    
    184500   40.556648      40.140671      118.05562      627.76328      301.10002      8393.0635      10123.418      162952.89     -241375.55     -68299.235    
    185000   40.556648      40.140671      118.05562      372.55952      303.28474      8454.0112      9930.9572      163038.49     -241407.42     -68437.974    
    185500   40.556648      40.140671      118.05562      572.72749      301.08341      8392.3061      10136.616      162727.66     -241408.65     -68544.374    
    186000   40.556648      40.140671      118.05562      443.10412      301.22228      8396.1376      9980.752       163184.57     -241396.85     -68231.528    
    186500   40.556648      40.140671      118.05562      297.15283      299.25863      8341.4472      9859.164       163249.33     -241385.38     -68276.89     
    187000   40.556648      40.140671      118.05562      476.37946      303.47047      8458.9644      10036.163      162939.15     -241375.59     -68400.269    
    187500   40.556648      40.140671      118.05562      436.28072      300.38586      8372.8235      9900.2988      163307.19     -241381.85     -68174.361    
    188000   40.556648      40.140671      118.05562      311.26656      299.46877      8347.4593      9795.7923      163400.08     -241392.93     -68197.057    
    188500   40.556648      40.140671      118.05562      505.3454       299.33076      8344.1766      9977.314       163080.16     -241414.73     -68357.255    
    189000   40.556648      40.140671      118.05562      440.51271      302.64867      8435.8947      9876.3732      163239.75     -241367.43     -68251.316    
    189500   40.556648      40.140671      118.05562      214.27739      301.77468      8413.0459      9755.5717      163275        -241391.78     -68361.211    
    190000   40.556648      40.140671      118.05562      711.07442      297.84395      8303.8595      10170.104      162710.76     -241390.96     -68510.094    
    190500   40.556648      40.140671      118.05562      453.40347      295.48364      8236.5357      9929.4102      163026.08     -241396.94     -68441.451    
    191000   40.556648      40.140671      118.05562      633.48801      294.79521      8217.2996      10115.705      162734.43     -241375.98     -68525.844    
    191500   40.556648      40.140671      118.05562      647.06918      296.95847      8277.3371      10067.981      162932.45     -241396.11     -68395.674    
    192000   40.556648      40.140671      118.05562      547.63486      300.70947      8381.8498      9958.0904      163067.46     -241392.79     -68367.242    
    192500   40.556648      40.140671      118.05562      458.75458      299.3171       8344.1867      9920.711       163149.21     -241404.55     -68334.634    
    193000   40.556648      40.140671      118.05562      335.63097      295.60629      8241.2577      9778.6893      163294.35     -241394.52     -68321.483    
    193500   40.556648      40.140671      118.05562      601.24246      301.497        8403.8029      9952.111       162973.03     -241389.26     -68464.118    
    194000   40.556648      40.140671      118.05562      701.35019      301.21336      8395.8911      10104.985      162666.47     -241395.99     -68624.535    
    194500   40.556648      40.140671      118.05562      547.07922      300.30711      8370.6304      10005.441      162726.22     -241407.6      -68675.937    
    195000   40.556648      40.140671      118.05562      702.97678      301.03062      8390.8289      10137.196      162705.81     -241401        -68557.998    
    195500   40.556648      40.140671      118.05562      610.93513      297.47081      8293.5306      10036.847      162900.41     -241394.85     -68457.593    
    196000   40.556648      40.140671      118.05562      759.05903      298.24292      8313.9776      10139.037      162880.05     -241394.7      -68375.611    
    196500   40.556648      40.140671      118.05562      656.47387      302.70326      8437.7055      10025.204      163020.92     -241394.98     -68348.851    
    197000   40.556648      40.140671      118.05562      745.97197      303.60011      8462.5074      10125.109      162835.36     -241399.2      -68438.722    
    197500   40.556648      40.140671      118.05562      509.18005      298.82404      8329.4295      9930.1165      163074.52     -241391.43     -68386.793    
    198000   40.556648      40.140671      118.05562      831.53029      300.52053      8376.6573      10247.516      162760.58     -241405.37     -68397.271    
    198500   40.556648      40.140671      118.05562      686.51346      305.82825      8524.5495      10083.85       162889.01     -241377.89     -68405.028    
    199000   40.556648      40.140671      118.05562      666.89398      298.69588      8328.8469      10091.444      162883.99     -241402.26     -68426.831    
    199500   40.556648      40.140671      118.05562      652.49096      296.21514      8257.1885      10116.39       162857.1      -241373.62     -68400.13     
    200000   40.556648      40.140671      118.05562      426.70063      297.80623      8300.9492      10007.245      162857.86     -241396.39     -68531.287    
    200500   40.556648      40.140671      118.05562      462.6625       295.87591      8249.0441      10006.874      162900.96     -241373.7      -68465.869    
    201000   40.556648      40.140671      118.05562      463.93136      302.04822      8419.1939      9964.8741      163091.25     -241386.09     -68329.963    
    201500   40.556648      40.140671      118.05562      387.32918      296.67429      8269.3746      9900.2302      163200.29     -241382.21     -68281.683    
    202000   40.556648      40.140671      118.05562      702.65363      304.30974      8483.0965      10041.336      163167.67     -241372.48     -68163.474    
    202500   40.556648      40.140671      118.05562      477.67435      302.02447      8418.8052      10000.565      163065.38     -241389.32     -68323.375    
    203000   40.556648      40.140671      118.05562      542.42597      299.28515      8342.4961      10028.683      163047        -241389.23     -68313.552    
    203500   40.556648      40.140671      118.05562      274.74725      304.71466      8493.5593      9785.0566      163321.44     -241398.28     -68291.788    
    204000   40.556648      40.140671      118.05562      163.71321      300.54973      8377.4485      9658.7         163461.25     -241388.75     -68268.794    
    204500   40.556648      40.140671      118.05562      233.43729      299.76749      8355.8269      9719.523       163472.74     -241382.42     -68190.15     
    205000   40.556648      40.140671      118.05562      754.11796      301.19934      8395.4977      10196.277      162875.56     -241384.09     -68312.246    
    205500   40.556648      40.140671      118.05562      624.43034      302.93978      8444.2701      10132.492      162870.83     -241373.05     -68369.737    
    206000   40.556648      40.140671      118.05562      499.86         300.73876      8382.6712      10011.12       162986.22     -241376.77     -68379.426    
    206500   40.556648      40.140671      118.05562      499.46152      301.20837      8395.7501      9898.9287      163212.81     -241389.55     -68277.815    
    207000   40.556648      40.140671      118.05562      554.16058      302.68233      8439.3724      9862.5126      163365.52     -241401.27     -68173.238    
    207500   40.556648      40.140671      118.05562      485.25548      298.08071      8308.6928      9841.823       163306.05     -241397.22     -68249.347    
    208000   40.556648      40.140671      118.05562      248.55044      298.93064      8332.365       9624.4591      163483.67     -241392.63     -68284.494    
    208500   40.556648      40.140671      118.05562      718.35727      301.4752       8403.2851      10112.77       162922.27     -241391.55     -68356.506    
    209000   40.556648      40.140671      118.05562      511.42902      302.36013      8427.9855      9897.4067      163181.05     -241392.66     -68314.2      
    209500   40.556648      40.140671      118.05562      739.63611      296.81061      8273.2366      10139.638      162950.13     -241363.04     -68273.272    
    210000   40.556648      40.140671      118.05562      644.02677      301.50932      8404.8335      10056.72       162885.64     -241396.61     -68454.244    
    210500   40.556648      40.140671      118.05562      696.61168      302.86237      8441.8524      10069.373      162815.97     -241392.88     -68507.533    
    211000   40.556648      40.140671      118.05562      460.97598      304.01469      8473.9814      9818.1353      163248.98     -241367.42     -68300.297    
    211500   40.556648      40.140671      118.05562      637.19778      297.7514       8299.5936      9998.76        162969.5      -241387.65     -68419.39     
    212000   40.556648      40.140671      118.05562      663.41491      297.79102      8300.647       10015.321      162948.86     -241380.07     -68415.898    
    212500   40.556648      40.140671      118.05562      952.1851       299.53405      8349.1817      10232.345      162718.54     -241384.83     -68433.94     
    213000   40.556648      40.140671      118.05562      544.6996       298.35851      8316.4386      9886.411       163074.42     -241403.11     -68442.278    
    213500   40.556648      40.140671      118.05562      646.43521      298.23641      8312.9352      9980.873       163048.19     -241388.47     -68359.401    
    214000   40.556648      40.140671      118.05562      362.21244      298.94409      8332.6504      9799.3544      163034.97     -241392.47     -68558.148    
    214500   40.556648      40.140671      118.05562      743.06754      296.68599      8269.7716      10087.564      162858.61     -241370.66     -68424.483    
    215000   40.556648      40.140671      118.05562      504.23973      301.48043      8403.5575      9945.082       162974.25     -241395.29     -68475.959    
    215500   40.556648      40.140671      118.05562      500.05722      301.45403      8403.2621      9881.7206      163224.34     -241401.38     -68295.321    
    216000   40.556648      40.140671      118.05562      313.51864      298.86005      8330.4785      9835.1184      162899.31     -241365.68     -68631.248    
    216500   40.556648      40.140671      118.05562      540.03753      298.46226      8319.2089      9974.2789      162980.99     -241372.64     -68417.373    
    217000   40.556648      40.140671      118.05562      290.78785      301.26605      8397.8624      9705.6207      163301.53     -241390.32     -68383.171    
    217500   40.556648      40.140671      118.05562      600.7599       300.21419      8368.0541      10006.786      163011.63     -241377.61     -68359.202    
    218000   40.556648      40.140671      118.05562      536.48881      296.65547      8269.411       9962.8671      163093.76     -241375.04     -68318.42     
    218500   40.556648      40.140671      118.05562      419.03611      301.91852      8415.5425      9798.8753      163334.86     -241387.07     -68253.331    
    219000   40.556648      40.140671      118.05562      301.79565      303.15442      8450.1726      9725.4298      163265.52     -241372.48     -68381.533    
    219500   40.556648      40.140671      118.05562      402.97577      299.341        8344.0292      9886.1039      163097.05     -241405.9      -68422.746    
    220000   40.556648      40.140671      118.05562      321.38118      299.35354      8345.2357      9819.2603      163193.18     -241383.14     -68370.702    
    220500   40.556648      40.140671      118.05562      508.22249      298.95898      8333.3033      9996.5173      162961.93     -241397.43     -68438.977    
    221000   40.556648      40.140671      118.05562      335.58468      298.72928      8326.6515      9940.8155      162846.28     -241375.95     -68588.847    
    221500   40.556648      40.140671      118.05562      399.07784      300.31658      8370.9748      9943.2404      162972.41     -241386.89     -68471.235    
    222000   40.556648      40.140671      118.05562      540.40019      301.87686      8414.7089      9976.144       163013.96     -241397.6      -68407.497    
    222500   40.556648      40.140671      118.05562      361.65448      300.65984      8380.5766      9968.4339      162835.15     -241391.6      -68588.021    
    223000   40.556648      40.140671      118.05562      708.94213      299.90192      8359.5941      10089.565      163042.71     -241416.37     -68284.095    
    223500   40.556648      40.140671      118.05562      697.01539      301.71326      8409.891       10099.632      162970.15     -241389.37     -68319.586    
    224000   40.556648      40.140671      118.05562      408.64458      299.89516      8359.4273      9897.7309      163077.37     -241398.09     -68422.983    
[...]
   9943000   40.556648      40.140671      118.05562      536.26974      297.43251      8290.5626      9964.8251      163245.78     -241391.74     -68181.133    
   9943500   40.556648      40.140671      118.05562      232.94411      295.58548      8239.1266      9788.4422      163237.32     -241382.01     -68356.248    
   9944000   40.556648      40.140671      118.05562      689.13715      303.11813      8449.0256      10061.899      163188.99     -241382.95     -68132.062    
   9944500   40.556648      40.140671      118.05562      518.78206      303.62099      8463.4212      10002.271      163049.77     -241390.09     -68338.048    
   9945000   40.556648      40.140671      118.05562      452.04529      300.83035      8385.3713      9925.9111      163041.06     -241401.17     -68434.202    
   9945500   40.556648      40.140671      118.05562      401.48521      298.62939      8324.1658      9834.3162      163318.48     -241380.02     -68227.226    
   9946000   40.556648      40.140671      118.05562      389.25755      296.30385      8260.9707      9874.9126      163123.82     -241404.91     -68406.175    
   9946500   40.556648      40.140671      118.05562      331.5427       300.19145      8367.5485      9761.1089      163219.41     -241391.87     -68411.35     
   9947000   40.556648      40.140671      118.05562      548.59928      297.42818      8291.3076      9957.2007      163036.04     -241363.7      -68370.459    
   9947500   40.556648      40.140671      118.05562      613.92708      298.44113      8318.6181      10007.551      162992.92     -241408.52     -68408.048    
   9948000   40.556648      40.140671      118.05562      665.17182      303.52381      8460.7762      10019.104      163100.37     -241356.96     -68237.487    
   9948500   40.556648      40.140671      118.05562      306.74342      297.65806      8297.0274      9790.4684      163247.36     -241394.44     -68356.609    
   9949000   40.556648      40.140671      118.05562      587.8232       297.45677      8291.5847      10025.346      163065.31     -241397.8      -68307.141    
   9949500   40.556648      40.140671      118.05562      467.74822      300.84105      8385.5098      9882.5839      163127.61     -241387.89     -68377.695    
   9950000   40.556648      40.140671      118.05562      485.74405      296.52513      8265.283       9869.9395      163329.41     -241402.13     -68202.788    
   9950500   40.556648      40.140671      118.05562      329.95795      296.46298      8264.4809      9819.2576      163254.22     -241386.1      -68312.628    
   9951000   40.556648      40.140671      118.05562      698.43833      300.35741      8372.5509      10091.267      163095.88     -241393.7      -68206.551    
   9951500   40.556648      40.140671      118.05562      400.87958      302.79317      8439.9296      9847.7339      163272.34     -241373.9      -68253.822    
   9952000   40.556648      40.140671      118.05562      508.99269      300.07667      8364.2069      9945.0204      163104.92     -241382.7      -68332.76     
   9952500   40.556648      40.140671      118.05562      373.56866      298.15096      8310.55        9936.2684      162886.36     -241389.83     -68567.199    
   9953000   40.556648      40.140671      118.05562      460.56025      302.22554      8424.1008      9880.6103      163165.08     -241402.5      -68356.807    
   9953500   40.556648      40.140671      118.05562      555.88147      296.75723      8271.7651      9985.0726      162988.2      -241386.15     -68412.873    
   9954000   40.556648      40.140671      118.05562      471.89439      300.1765       8367.2682      9958.1103      163039.08     -241389.59     -68392.402    
   9954500   40.556648      40.140671      118.05562      280.75478      301.22122      8396.158       9753.2891      163297.89     -241380.14     -68328.958    
   9955000   40.556648      40.140671      118.05562      300.83634      298.30261      8315.3004      9798.9551      163261.77     -241393.22     -68332.492    
   9955500   40.556648      40.140671      118.05562      549.24542      295.11846      8226.0016      10083.855      162907.98     -241375.08     -68383.247    
   9956000   40.556648      40.140671      118.05562      385.45892      303.33537      8455.0419      9812.2423      163314.71     -241391.55     -68264.59     
   9956500   40.556648      40.140671      118.05562      575.71678      299.12733      8337.9133      9982.9082      163182.29     -241394.3      -68229.105    
   9957000   40.556648      40.140671      118.05562      345.26014      298.39677      8318.2546      9789.1182      163313.6      -241388.85     -68286.138    
   9957500   40.556648      40.140671      118.05562      382.93808      300.68791      8381.5701      9851.039       163224.28     -241388.5      -68313.18     
   9958000   40.556648      40.140671      118.05562      466.96987      301.76539      8411.4609      9931.5594      163182.31     -241400.83     -68286.955    
   9958500   40.556648      40.140671      118.05562      488.87763      295.84242      8246.3282      9890.3934      163228.3      -241387.54     -68268.851    
   9959000   40.556648      40.140671      118.05562      319.33658      300.25971      8369.7905      9784.2747      163426.17     -241384.91     -68174.467    
   9959500   40.556648      40.140671      118.05562      518.65477      301.42317      8402.0364      9997.1912      162981.18     -241393.72     -68415.35     
   9960000   40.556648      40.140671      118.05562      444.55363      301.91416      8415.7476      9987.6131      162996.74     -241397.47     -68413.121    
   9960500   40.556648      40.140671      118.05562      614.4303       299.51643      8348.5981      10060.246      162961.04     -241379.55     -68358.262    
   9961000   40.556648      40.140671      118.05562      334.01105      301.78517      8411.8337      9862.9476      163174.98     -241399.29     -68361.364    
   9961500   40.556648      40.140671      118.05562      408.92937      301.40028      8401.9961      9940.8023      163109.07     -241389.87     -68339.998    
   9962000   40.556648      40.140671      118.05562      305.74195      300.14175      8366.0653      9796.0891      163273.4      -241392.46     -68322.97     
   9962500   40.556648      40.140671      118.05562      514.80789      301.55502      8406.3513      9975.38        163094.88     -241375.76     -68305.501    
   9963000   40.556648      40.140671      118.05562      554.50853      298.66463      8324.8451      9975.8487      163079.87     -241400.03     -68344.312    
   9963500   40.556648      40.140671      118.05562      469.84817      301.05176      8391.4479      9925.271       163052.56     -241383.71     -68405.88     
   9964000   40.556648      40.140671      118.05562      527.95118      303.59231      8462.484       9990.7918      162940.42     -241391.4      -68460.197    
   9964500   40.556648      40.140671      118.05562      592.21423      299.5999       8350.9273      9987.3328      163159.69     -241391.64     -68244.618    
   9965000   40.556648      40.140671      118.05562      471.07023      299.81542      8357.1703      9809.3369      163391.41     -241392.8      -68192.047    
   9965500   40.556648      40.140671      118.05562      559.63429      298.10395      8309.2242      10001.433      163036.15     -241392.11     -68354.526    
   9966000   40.556648      40.140671      118.05562      485.67264      299.19185      8339.6691      9967.2126      163114.21     -241392.89     -68311.464    
   9966500   40.556648      40.140671      118.05562      660.22649      296.16115      8255.1254      9992.7229      163160.38     -241401.38     -68248.276    
   9967000   40.556648      40.140671      118.05562      722.20041      301.84693      8413.5591      10163.441      162637.52     -241408.02     -68607.065    
   9967500   40.556648      40.140671      118.05562      605.10244      300.00865      8362.3561      10066.387      162837        -241397.5      -68494.119    
   9968000   40.556648      40.140671      118.05562      671.14838      293.52542      8181.6426      10048.273      162929.5      -241381.87     -68404.096    
   9968500   40.556648      40.140671      118.05562      661.24871      297.90661      8304.4938      10046.08       162968.61     -241388.48     -68373.789    
   9969000   40.556648      40.140671      118.05562      466.96946      295.7636       8244.0156      9935.7101      163042.93     -241402.12     -68423.481    
   9969500   40.556648      40.140671      118.05562      629.92133      295.70164      8242.3972      10131.19       162834.07     -241391.5      -68426.242    
   9970000   40.556648      40.140671      118.05562      441.57753      297.90739      8304.2752      9883.9903      163284.25     -241386.82     -68218.583    
   9970500   40.556648      40.140671      118.05562      270.60355      298.98742      8333.8931      9866.9547      163099.14     -241412.52     -68446.43     
   9971000   40.556648      40.140671      118.05562      358.33332      306.40258      8540.5325      9814.6904      163326.15     -241388.47     -68247.636    
   9971500   40.556648      40.140671      118.05562      487.94556      295.00684      8223.133       10016.223      163003.43     -241384.07     -68364.415    
   9972000   40.556648      40.140671      118.05562      330.99266      298.02087      8307.0468      9876.1696      163121.02     -241384.51     -68387.32     
   9972500   40.556648      40.140671      118.05562      571.02251      301.96023      8418.347       10107.881      162860.5      -241395.25     -68426.877    
   9973000   40.556648      40.140671      118.05562      554.09028      295.89159      8247.7527      10142.393      162665.86     -241413.77     -68605.514    
   9973500   40.556648      40.140671      118.05562      388.98729      301.34473      8399.8776      9971.2454      162885.45     -241407.34     -68550.649    
   9974000   40.556648      40.140671      118.05562      421.75202      300.0619       8364.4212      9952.975       163043.88     -241404.33     -68407.469    
   9974500   40.556648      40.140671      118.05562      627.23477      300.62649      8380.2683      10072.292      163001.64     -241378.38     -68304.448    
   9975000   40.556648      40.140671      118.05562      338.73138      299.61142      8351.239       9909.9555      163006.05     -241392.02     -68476.02     
   9975500   40.556648      40.140671      118.05562      368.95468      299.69569      8354.3223      9885.66        163075.92     -241384.72     -68423.138    
   9976000   40.556648      40.140671      118.05562      365.84196      302.12426      8421.29        9885.2579      163017.04     -241400.01     -68497.716    
   9976500   40.556648      40.140671      118.05562      357.60705      297.30857      8288.0398      9853.9481      163266.71     -241397.48     -68276.823    
   9977000   40.556648      40.140671      118.05562      613.89614      294.22657      8201.266       10031.813      163063.26     -241391.25     -68296.18     
   9977500   40.556648      40.140671      118.05562      546.00642      300.66156      8380.5106      9945.6875      163263.5      -241380.58     -68171.401    
   9978000   40.556648      40.140671      118.05562      209.25404      298.82597      8329.5142      9738.6737      163285.97     -241382.78     -68358.131    
   9978500   40.556648      40.140671      118.05562      268.77898      301.41281      8401.7955      9751.0445      163318.33     -241392.23     -68322.859    
   9979000   40.556648      40.140671      118.05562      91.623843      298.10371      8309.2242      9498.0797      163775.62     -241383.13     -68109.431    
   9979500   40.556648      40.140671      118.05562      600.00672      298.14174      8311.2381      10045.071      162996.34     -241351.8      -68310.386    
   9980000   40.556648      40.140671      118.05562      903.53295      303.36418      8455.8383      10225.469      162848.09     -241384.2      -68310.643    
   9980500   40.556648      40.140671      118.05562      842.19831      299.71743      8354.1902      10175.625      163026.63     -241397.99     -68195.737    
   9981000   40.556648      40.140671      118.05562      506.28242      305.21981      8507.6384      9991.1501      162843.18     -241378.36     -68544.025    
   9981500   40.556648      40.140671      118.05562      506.82339      300.28522      8370.1408      9854.4732      163344.14     -241403.92     -68205.305    
   9982000   40.556648      40.140671      118.05562      116.73249      296.96193      8277.4068      9591.4159      163566.7      -241385.14     -68227.022    
   9982500   40.556648      40.140671      118.05562      481.03765      296.40901      8261.9974      9902.8474      163183.81     -241397.94     -68311.281    
   9983000   40.556648      40.140671      118.05562      321.16503      301.04561      8391.2573      9764.6416      163202.3      -241373.38     -68406.432    
   9983500   40.556648      40.140671      118.05562      472.2451       303.63795      8463.5475      9928.2761      163059.03     -241398.33     -68411.02     
   9984000   40.556648      40.140671      118.05562      631.24209      299.29612      8342.7251      9983.8361      163202.3      -241399.09     -68212.947    
   9984500   40.556648      40.140671      118.05562      540.90883      298.1092       8309.8035      10022.909      162815.8      -241386.28     -68547.578    
   9985000   40.556648      40.140671      118.05562      522.34331      298.7036       8326.2227      9897.9468      163152.79     -241383.21     -68332.476    
   9985500   40.556648      40.140671      118.05562      417.14642      299.95691      8361.0508      9839.4421      163112.77     -241397.65     -68445.43     
   9986000   40.556648      40.140671      118.05562      554.60174      303.3725       8458.3505      9953.3042      163169.81     -241392.78     -68269.67     
   9986500   40.556648      40.140671      118.05562      423.39293      299.60313      8351.6792      9845.5706      163207.95     -241408.06     -68354.533    
   9987000   40.556648      40.140671      118.05562      739.75624      301.69643      8409.8748      10194.658      162866.61     -241383.17     -68321.909    
   9987500   40.556648      40.140671      118.05562      634.84197      299.34101      8343.8393      10055.919      163021.72     -241375.65     -68298.008    
   9988000   40.556648      40.140671      118.05562      444.36729      302.70868      8437.9298      9924.4782      163084.35     -241392.36     -68383.53     
   9988500   40.556648      40.140671      118.05562      377.49307      301.79813      8412.7364      9885.0558      163131.58     -241374.78     -68358.152    
   9989000   40.556648      40.140671      118.05562      724.08941      298.09369      8309.0532      10187.395      162788.82     -241389.14     -68412.925    
   9989500   40.556648      40.140671      118.05562      237.66556      299.95067      8361.0608      9767.6728      163310.94     -241369.81     -68291.195    
   9990000   40.556648      40.140671      118.05562      624.64524      296.98201      8277.966       10078.507      163021.76     -241379.48     -68279.212    
   9990500   40.556648      40.140671      118.05562      335.07274      297.33555      8287.8138      9804.1629      163413.32     -241365.64     -68148.153    
   9991000   40.556648      40.140671      118.05562      302.41075      291.09215      8114.2686      9901.607       163152.2      -241394.27     -68340.46     
   9991500   40.556648      40.140671      118.05562      105.09879      296.95365      8277.2276      9670.3906      163331.08     -241397.37     -68395.904    
   9992000   40.556648      40.140671      118.05562      414.64571      298.36417      8316.5255      9948.4129      163119.06     -241383.88     -68316.408    
   9992500   40.556648      40.140671      118.05562      517.81894      301.93197      8415.9391      10029.769      163028.23     -241379.67     -68321.669    
   9993000   40.556648      40.140671      118.05562      468.03385      293.61481      8184.0884      10036.061      163016.96     -241374.99     -68321.967    
   9993500   40.556648      40.140671      118.05562      443.54822      303.23705      8452.3226      9911.9978      163238.53     -241390.39     -68239.863    
   9994000   40.556648      40.140671      118.05562      416.24694      297.82216      8301.4663      9968.5385      163153.01     -241406.78     -68285.228    
   9994500   40.556648      40.140671      118.05562      591.21513      303.36502      8456.067       9928.7426      163446.72     -241376.72     -68001.263    
   9995000   40.556648      40.140671      118.05562      185.86382      296.38441      8261.5092      9706.2064      163399.97     -241389.06     -68282.877    
   9995500   40.556648      40.140671      118.05562      88.479626      301.15303      8394.27        9585.0233      163609.87     -241395.65     -68200.75     
   9996000   40.556648      40.140671      118.05562      189.04199      298.39889      8318.174       9664.087       163618.38     -241407.75     -68125.277    
   9996500   40.556648      40.140671      118.05562      362.37963      300.71541      8382.3094      9905.5064      163070.76     -241378.37     -68402.103    
   9997000   40.556648      40.140671      118.05562      419.26565      302.39721      8428.9413      9852.3276      163281.44     -241371.35     -68237.584    
   9997500   40.556648      40.140671      118.05562      586.34827      304.2977       8482.0676      10006.487      163036.23     -241395.8      -68353.091    
   9998000   40.556648      40.140671      118.05562      455.16753      299.10914      8337.3998      9839.1209      163232.59     -241387.48     -68315.772    
   9998500   40.556648      40.140671      118.05562      543.09951      299.42338      8346.2982      10012.818      162907.55     -241377.34     -68456.98     
   9999000   40.556648      40.140671      118.05562      756.35501      298.38641      8317.2366      10165.172      162759.98     -241400.67     -68475.51     
   9999500   40.556648      40.140671      118.05562      609.44649      302.99504      8445.7499      10060.992      162905.78     -241382.95     -68416.182    
  10000000   40.556648      40.140671      118.05562      340.96175      303.50019      8459.6545      9872.4801      163006.86     -241399.61     -68520.27     
Loop time of 246361 on 8 procs for 10000000 steps with 15374 atoms

Performance: 3.507 ns/day, 6.843 hours/ns, 40.591 timesteps/s, 624.044 katom-step/s
98.2% CPU use with 8 MPI tasks x 1 OpenMP threads

MPI task timing breakdown:
Section |  min time  |  avg time  |  max time  |%varavg| %total
---------------------------------------------------------------
Pair    | 64296      | 1.2359e+05 | 1.7782e+05 |13737.8 | 50.16
Bond    | 6.4224     | 7.1534     | 7.8227     |  18.8 |  0.00
Kspace  | 25524      | 78899      | 1.3656e+05 |16854.6 | 32.03
Neigh   | 31925      | 31953      | 31993      |  14.5 | 12.97
Comm    | 4596.8     | 5399       | 6675.6     |1155.9 |  2.19
Output  | 7.0559     | 7.3526     | 7.9034     |   9.0 |  0.00
Modify  | 5512.5     | 5701.5     | 6101.6     | 313.3 |  2.31
Other   |            | 807.1      |            |       |  0.33

Nlocal:        1921.75 ave        2464 max         557 min
Histogram: 2 0 0 0 0 0 0 0 2 4
Nghost:        13211.6 ave       16290 max       10610 min
Histogram: 2 2 0 0 0 0 2 0 0 2
Neighs:    1.02251e+06 ave 1.45298e+06 max      290598 min
Histogram: 2 0 0 0 0 2 0 0 0 4

Total # of neighbors = 8180047
Ave neighs/atom = 532.07018
Ave special neighs/atom = 1.7944582
Neighbor list builds = 527660
Dangerous builds = 0
Total wall time: 68:28:28
